22830
Atoms. Timestep: 6075
Sr 77.8276 77.8623 -0.119579
Sr 77.833 77.8745 3.84289
Sr 77.8362 77.8492 7.75092
Sr 77.824 77.8709 11.6786
Sr 77.8425 77.8345 15.6197
Sr 77.8101 77.9456 19.6176
Sr 77.8364 4.27082 -0.124652
Sr 77.8463 4.23822 3.82055
Sr 77.8451 4.24295 7.78938
Sr 77.8512 4.23637 11.7119
Sr 77.8433 4.20545 15.6363
Sr 77.7619 4.02232 19.5942
Sr 77.8315 8.22693 -0.0950082
Sr 77.8439 8.19975 3.88132
Sr 77.8335 8.18128 7.78929
Sr 77.821 8.1374 11.7556
Sr 77.8359 8.10038 15.7174
Sr 77.8411 8.03479 19.6669
Sr 77.8354 12.1825 -0.0275373
Sr 77.8441 12.1286 3.93342
Sr 77.8328 12.0906 7.86051
Sr 77.8314 12.0326 11.8359
Sr 77.8297 11.9569 15.8398
Sr 77.8167 11.8391 19.8331
Sr 77.8219 16.0946 0.0553642
Sr 77.8236 16.0754 4.00754
Sr 77.8358 16.0192 7.9621
Sr 77.8143 15.9239 11.9475
Sr 77.8395 15.8053 15.9589
Sr 77.8111 15.7049 19.9775
Sr 77.8265 20.0784 0.0937104
Sr 77.8266 19.9738 4.06714
Sr 77.8332 19.9002 8.04334
Sr 77.8226 19.7591 12.0433
Sr 77.8282 19.6953 16.1103
Sr 77.8465 19.5334 20.15
Sr 77.8318 24.0587 0.203778
Sr 77.8191 23.8578 4.1594
Sr 77.8225 23.7161 8.18663
Sr 77.8085 23.6316 12.2005
Sr 77.8337 23.5583 16.2497
Sr 77.8521 23.4471 20.2672
Sr 77.8329 27.9785 0.304903
Sr 77.8521 27.7401 4.28343
Sr 77.8549 27.5657 8.36274
Sr 77.8557 27.4691 12.3979
Sr 77.8611 27.4131 16.3948
Sr 77.8336 27.3492 20.4033
Sr 77.8653 31.8858 0.430544
Sr 77.8355 31.5636 4.50533
Sr 77.83 31.3668 8.50021
Sr 77.8145 31.3436 12.522
Sr 77.8399 31.265 16.5113
Sr 77.869 31.2177 20.5038
Sr 77.84 35.6781 0.587869
Sr 77.8395 35.2755 4.73352
Sr 77.8647 35.2107 8.65116
Sr 77.833 35.2029 12.6281
Sr 77.8246 35.174 16.5631
Sr 77.8648 35.1809 20.553
Sr 77.8328 39.0582 1.03501
Sr 77.8555 39.074 4.85164
Sr 77.8434 39.0994 8.72481
Sr 77.8393 39.0843 12.6673
Sr 77.8115 39.1008 16.6359
Sr 77.8483 39.0716 20.5959
Sr 77.8604 42.4244 0.51976
Sr 77.8435 42.9021 4.6947
Sr 77.8602 42.9519 8.65826
Sr 77.859 42.9847 12.6171
Sr 77.8569 43.0116 16.5919
Sr 77.8556 42.9964 20.5436
Sr 77.8381 46.2978 0.422688
Sr 77.8492 46.6321 4.45147
Sr 77.8606 46.7714 8.49912
Sr 77.8344 46.8315 12.4987
Sr 77.8395 46.8799 16.5022
Sr 77.8306 46.9053 20.4959
Sr 77.8553 50.1832 0.284567
Sr 77.8774 50.4546 4.30412
Sr 77.8337 50.5844 8.31012
Sr 77.8606 50.6696 12.3602
Sr 77.8359 50.7531 16.3794
Sr 77.8365 50.8187 20.4083
Sr 77.8434 54.1328 0.191699
Sr 77.8568 54.3011 4.15743
Sr 77.8441 54.4165 8.19528
Sr 77.8403 54.54 12.2134
Sr 77.8335 54.5947 16.26
Sr 77.8546 54.7057 20.2392
Sr 77.8246 58.0823 0.0840372
Sr 77.8417 58.2008 4.06508
Sr 77.836 58.2814 8.06602
Sr 77.8387 58.3575 12.0561
Sr 77.8159 58.4258 16.0699
Sr 77.8004 58.5644 20.1094
Sr 77.8344 62.0356 0.022222
Sr 77.851 62.1055 4.02901
Sr 77.8226 62.1825 7.97195
Sr 77.8169 62.2451 11.952
Sr 77.8435 62.3496 15.9468
Sr 77.8452 62.4424 19.954
Sr 77.8484 65.9838 -0.0468596
Sr 77.8248 66.0171 3.93447
Sr 77.8411 66.0743 7.88794
Sr 77.8408 66.1207 11.8462
Sr 77.8373 66.2011 15.8041
Sr 77.8188 66.3013 19.8222
Sr 77.822 69.9376 -0.0854986
Sr 77.8389 69.9745 3.8731
Sr 77.8311 69.9916 7.82099
Sr 77.841 70.0381 11.744
Sr 77.8317 70.0844 15.7059
Sr 77.8721 70.1533 19.6607
Sr 77.8453 73.8993 -0.130524
Sr 77.8409 73.9224 3.84869
Sr 77.8486 73.9218 7.76195
Sr 77.8441 73.941 11.692
Sr 77.8179 73.9977 15.6567
Sr 77.9219 74.0471 19.5782
Sr 4.2856 77.8496 -0.124229
Sr 4.23334 77.8419 3.84125
Sr 4.25263 77.8577 7.78167
Sr 4.23682 77.8373 11.7167
Sr 4.16411 77.851 15.6589
Sr 4.06403 77.9171 19.6712
Sr 4.25213 4.26607 -0.0966738
Sr 4.25261 4.24111 3.8377
Sr 4.20484 4.24844 7.75157
Sr 4.20915 4.23148 11.7342
Sr 4.17188 4.21383 15.6829
Sr 4.11497 4.1539 19.6778
Sr 4.24286 8.23159 -0.086706
Sr 4.23484 8.18149 3.86374
Sr 4.21801 8.1664 7.80769
Sr 4.19909 8.14184 11.7961
Sr 4.16262 8.07804 15.7506
Sr 4.23576 8.02699 19.8053
Sr 4.25014 12.1784 -0.0431391
Sr 4.2201 12.1388 3.9245
Sr 4.22545 12.082 7.90155
Sr 4.19757 12.0156 11.8647
Sr 4.17783 11.9585 15.8399
Sr 4.21976 11.7993 19.8553
Sr 4.22463 16.1253 0.0138954
Sr 4.23637 16.0458 3.95205
Sr 4.23656 15.9804 7.95861
Sr 4.19883 15.929 11.9692
Sr 4.17877 15.8285 15.964
Sr 4.15242 15.7286 19.9648
Sr 4.24517 20.1506 0.105477
Sr 4.22308 19.9456 4.06357
Sr 4.20693 19.8811 8.07124
Sr 4.20486 19.7898 12.0818
Sr 4.21588 19.6504 16.0984
Sr 4.21593 19.5893 20.1247
Sr 4.26671 24.0554 0.169125
Sr 4.23337 23.8688 4.14362
Sr 4.22859 23.7301 8.16897
Sr 4.16325 23.621 12.223
Sr 4.228 23.5473 16.2225
Sr 4.22423 23.434 20.2423
Sr 4.25918 27.9452 0.280094
Sr 4.22748 27.7054 4.26843
Sr 4.20476 27.5832 8.31938
Sr 4.20839 27.4831 12.3631
Sr 4.21484 27.4091 16.3813
Sr 4.2308 27.3219 20.4043
Sr 4.26051 31.8598 0.411686
Sr 4.21657 31.5248 4.47471
Sr 4.19362 31.3719 8.48584
Sr 4.1944 31.3278 12.5037
Sr 4.22076 31.2832 16.4949
Sr 4.2605 31.2593 20.4801
Sr 4.26538 35.6691 0.626157
Sr 4.25526 35.2531 4.70827
Sr 4.19037 35.2179 8.6594
Sr 4.19048 35.1973 12.6016
Sr 4.2246 35.1772 16.5698
Sr 4.24493 35.1667 20.5509
Sr 4.22232 39.094 0.990319
Sr 4.24955 39.075 4.82868
Sr 4.22821 39.0996 8.69927
Sr 4.20788 39.0853 12.6497
Sr 4.21398 39.0786 16.6001
Sr 4.25416 39.077 20.5902
Sr 4.29546 42.4635 0.498535
Sr 4.22515 42.8954 4.67629
Sr 4.25102 42.9496 8.64789
Sr 4.21657 42.9453 12.6261
Sr 4.23448 42.9814 16.5563
Sr 4.24646 43.0219 20.5776
Sr 4.27982 46.2814 0.406911
Sr 4.24573 46.6459 4.44487
Sr 4.24058 46.7803 8.47859
Sr 4.21158 46.8298 12.5144
Sr 4.22877 46.8803 16.4905
Sr 4.24664 46.9183 20.485
Sr 4.26731 50.2173 0.279184
Sr 4.24157 50.456 4.29768
Sr 4.21566 50.5815 8.32264
Sr 4.24082 50.6643 12.3498
Sr 4.20012 50.7584 16.3498
Sr 4.26231 50.8107 20.3683
Sr 4.26338 54.1541 0.174684
Sr 4.25194 54.3181 4.17416
Sr 4.22268 54.4166 8.1812
Sr 4.20967 54.5015 12.2226
Sr 4.19281 54.618 16.224
Sr 4.23461 54.674 20.2744
Sr 4.24684 58.0959 0.0898636
Sr 4.23489 58.1943 4.04817
Sr 4.20346 58.2796 8.06238
Sr 4.22305 58.4024 12.0629
Sr 4.20423 58.4734 16.0864
Sr 4.21562 58.5641 20.1058
Sr 4.25558 62.0316 0.0130909
Sr 4.23891 62.113 3.99316
Sr 4.23793 62.1954 7.98112
Sr 4.20385 62.24 11.948
Sr 4.17151 62.3314 15.9287
Sr 4.17793 62.3778 19.9485
Sr 4.25527 65.9634 -0.0539183
Sr 4.22736 66.0575 3.90814
Sr 4.22481 66.0993 7.87977
Sr 4.22293 66.1275 11.8744
Sr 4.18617 66.1965 15.8131
Sr 4.18729 66.3081 19.8424
Sr 4.25883 69.9371 -0.0798625
Sr 4.23622 69.9904 3.86375
Sr 4.22812 70.0005 7.80137
Sr 4.2067 70.0356 11.7659
Sr 4.18045 70.0691 15.7312
Sr 4.20396 70.1213 19.7183
Sr 4.26059 73.9166 -0.114619
Sr 4.24109 73.9073 3.83621
Sr 4.22515 73.919 7.76248
Sr 4.20416 73.9528 11.706
Sr 4.19619 73.9618 15.6838
Sr 4.11408 73.9513 19.6256
Sr 8.23836 77.8663 -0.11457
Sr 8.19007 77.8506 3.83888
Sr 8.12552 77.87 7.79792
Sr 8.1148 77.8411 11.7438
Sr 8.05915 77.8484 15.7118
Sr 7.93124 77.8967 19.7248
Sr 8.21137 4.30191 -0.069868
Sr 8.18091 4.24652 3.88278
Sr 8.14422 4.25092 7.85056
Sr 8.13376 4.23123 11.796
Sr 8.04966 4.20462 15.7429
Sr 7.94315 4.1745 19.6655
Sr 8.22773 8.2521 -0.0666486
Sr 8.16743 8.19175 3.88458
Sr 8.1176 8.14518 7.86255
Sr 8.08371 8.13898 11.8093
Sr 8.05146 8.06742 15.793
Sr 8.01625 8.11911 19.7699
Sr 8.20556 12.1893 -0.0229334
Sr 8.15732 12.1596 3.96153
Sr 8.10755 12.0733 7.92425
Sr 8.11563 12.0431 11.9065
Sr 8.05396 11.9514 15.8467
Sr 8.05602 11.922 19.8793
Sr 8.20305 16.142 0.0268012
Sr 8.14418 16.0789 3.99333
Sr 8.11441 15.9866 7.97899
Sr 8.11563 15.9013 11.938
Sr 8.0886 15.8535 15.9327
Sr 8.07701 15.7387 19.9852
Sr 8.21258 20.0513 0.0904287
Sr 8.13339 19.9733 4.07607
Sr 8.12935 19.8922 8.05587
Sr 8.10977 19.8047 12.0849
Sr 8.06263 19.702 16.0402
Sr 8.07996 19.6067 20.0731
Sr 8.21853 24.0057 0.170187
Sr 8.167 23.8454 4.19508
Sr 8.11214 23.754 8.16509
Sr 8.11007 23.6404 12.1882
Sr 8.10821 23.5707 16.2288
Sr 8.11904 23.4423 20.2474
Sr 8.23504 27.9705 0.259986
Sr 8.15687 27.7132 4.27373
Sr 8.12901 27.5881 8.32287
Sr 8.09668 27.4384 12.3501
Sr 8.11596 27.3912 16.3531
Sr 8.15327 27.3608 20.4094
Sr 8.18606 31.8654 0.393936
Sr 8.149 31.5293 4.44398
Sr 8.11611 31.3801 8.47633
Sr 8.06706 31.3335 12.5026
Sr 8.11798 31.2739 16.4701
Sr 8.17221 31.2411 20.4903
Sr 8.24616 35.7002 0.56775
Sr 8.1419 35.2686 4.68333
Sr 8.11505 35.228 8.6464
Sr 8.08725 35.2057 12.5945
Sr 8.11904 35.1818 16.5656
Sr 8.16285 35.1413 20.5735
Sr 8.16717 39.091 1.00082
Sr 8.15233 39.07 4.80002
Sr 8.15123 39.1146 8.69269
Sr 8.12707 39.0788 12.6272
Sr 8.1398 39.0782 16.5752
Sr 8.17634 39.0643 20.5558
Sr 8.19922 42.4372 0.468542
Sr 8.16292 42.9183 4.63721
Sr 8.13573 42.9668 8.60624
Sr 8.12515 42.9718 12.5732
Sr 8.12267 42.9591 16.5591
Sr 8.18218 43.0008 20.5385
Sr 8.19581 46.2512 0.363304
Sr 8.17883 46.6496 4.43048
Sr 8.13077 46.7842 8.48361
Sr 8.12852 46.8347 12.4809
Sr 8.13864 46.8423 16.4703
Sr 8.17431 46.8982 20.4718
Sr 8.18701 50.1848 0.242653
Sr 8.18371 50.4833 4.23986
Sr 8.12809 50.5886 8.32279
Sr 8.11649 50.6667 12.3291
Sr 8.11655 50.7207 16.3667
Sr 8.17471 50.7773 20.3775
Sr 8.19763 54.1446 0.12822
Sr 8.16156 54.3248 4.15763
Sr 8.13908 54.4176 8.18331
Sr 8.12968 54.5107 12.1992
Sr 8.10579 54.5978 16.2148
Sr 8.15872 54.6751 20.2478
Sr 8.21087 58.1066 0.0962898
Sr 8.14008 58.2049 4.06477
Sr 8.14093 58.2725 8.09417
Sr 8.11072 58.3755 12.0556
Sr 8.09335 58.4284 16.0738
Sr 8.13014 58.5316 20.0506
Sr 8.21519 62.0422 0.0436884
Sr 8.15621 62.1273 4.00763
Sr 8.11847 62.1735 7.97337
Sr 8.08474 62.2478 11.9541
Sr 8.09016 62.2956 15.9568
Sr 8.11804 62.4232 19.9365
Sr 8.19968 65.9882 0.000526375
Sr 8.16086 66.0485 3.93372
Sr 8.14966 66.0833 7.91358
Sr 8.10812 66.1426 11.8607
Sr 8.0838 66.1953 15.8653
Sr 8.07915 66.1962 19.7852
Sr 8.17961 69.9523 -0.0755215
Sr 8.18056 69.9863 3.89384
Sr 8.15839 70.0052 7.8464
Sr 8.115 70.022 11.8203
Sr 8.07329 70.0559 15.7765
Sr 8.04461 70.0325 19.723
Sr 8.19732 73.9009 -0.0808666
Sr 8.18566 73.9257 3.87899
Sr 8.15189 73.9336 7.83186
Sr 8.12266 73.9499 11.7522
Sr 8.06314 73.9765 15.7254
Sr 7.95831 73.9222 19.6856
Sr 12.1487 77.8644 -0.00571619
Sr 12.1203 77.8543 3.92642
Sr 12.0566 77.8776 7.89027
Sr 12.0342 77.8735 11.8225
Sr 11.9128 77.8396 15.833
Sr 11.8427 77.8394 19.8323
Sr 12.143 4.26335 -0.0314104
Sr 12.1263 4.24409 3.91597
Sr 12.0277 4.26442 7.87522
Sr 12.0225 4.22084 11.8527
Sr 11.9659 4.17965 15.8286
Sr 11.8725 4.19222 19.781
Sr 12.1614 8.25519 -0.00440775
Sr 12.1062 8.20027 3.97121
Sr 12.0584 8.15536 7.91136
Sr 12.0073 8.10366 11.8837
Sr 11.9614 8.11172 15.8438
Sr 11.8649 8.14127 19.8171
Sr 12.165 12.1553 0.0425947
Sr 12.0973 12.1143 4.00737
Sr 12.0429 12.0643 7.93736
Sr 12.0089 11.9959 11.9186
Sr 11.9511 11.9854 15.8948
Sr 11.9494 12.0284 19.869
Sr 12.1903 16.1518 0.0827831
Sr 12.073 16.0337 4.04884
Sr 12.0447 15.969 7.98243
Sr 12.0048 15.9027 11.9713
Sr 11.9913 15.8476 15.9646
Sr 11.9677 15.8049 19.8405
Sr 12.1564 20.0647 0.118419
Sr 12.0743 19.948 4.09607
Sr 12.0411 19.844 8.06048
Sr 12.0103 19.7746 12.0353
Sr 11.9598 19.7353 16.0723
Sr 11.9881 19.7158 20.0212
Sr 12.1332 24.0322 0.20372
Sr 12.0799 23.8525 4.14539
Sr 12.0382 23.7307 8.14958
Sr 11.9745 23.6486 12.1867
Sr 12.0045 23.5581 16.1967
Sr 12.0768 23.5308 20.2193
Sr 12.1552 27.9589 0.254327
Sr 12.0802 27.721 4.2607
Sr 12.0291 27.5731 8.31499
Sr 12.0069 27.4774 12.2977
Sr 11.9859 27.4446 16.3419
Sr 12.0655 27.3905 20.3704
Sr 12.169 31.8449 0.410091
Sr 12.0733 31.539 4.44484
Sr 12.0221 31.39 8.47468
Sr 11.984 31.3158 12.4691
Sr 11.9731 31.3023 16.4459
Sr 12.0698 31.2579 20.4648
Sr 12.1672 35.6541 0.498448
Sr 12.0751 35.2638 4.65862
Sr 11.9976 35.2136 8.5937
Sr 12.0011 35.1916 12.5595
Sr 12.0185 35.203 16.5236
Sr 12.1022 35.1541 20.5449
Sr 12.0963 39.0368 0.970762
Sr 12.0594 39.085 4.79333
Sr 12.034 39.1017 8.64214
Sr 12 39.0787 12.5461
Sr 12.0251 39.0819 16.5538
Sr 12.1038 39.0687 20.5834
Sr 12.1272 42.4716 0.486526
Sr 12.0766 42.9043 4.61895
Sr 12.0251 42.9644 8.57664
Sr 12.0162 42.9844 12.5599
Sr 12.0232 42.9786 16.5228
Sr 12.0992 42.9639 20.5373
Sr 12.1512 46.3235 0.41678
Sr 12.0715 46.6175 4.41025
Sr 12.0287 46.7945 8.43232
Sr 12.0238 46.82 12.4673
Sr 12.0441 46.8464 16.4519
Sr 12.1154 46.8916 20.49
Sr 12.1166 50.2396 0.26712
Sr 12.0673 50.4503 4.2431
Sr 12.0482 50.6069 8.30398
Sr 11.9973 50.6748 12.3267
Sr 12.005 50.7206 16.3555
Sr 12.0888 50.767 20.3899
Sr 12.1469 54.1502 0.181986
Sr 12.0783 54.3362 4.16531
Sr 12.0464 54.4542 8.1734
Sr 12.0253 54.4987 12.2027
Sr 11.9946 54.5632 16.2069
Sr 12.0467 54.6304 20.2044
Sr 12.1588 58.0733 0.123542
Sr 12.0999 58.2174 4.07133
Sr 12.0597 58.326 8.07609
Sr 11.9981 58.357 12.0741
Sr 11.9832 58.4229 16.0678
Sr 12.0172 58.5235 20.0791
Sr 12.1748 62.029 0.0748452
Sr 12.0904 62.1495 4.06479
Sr 12.0309 62.2151 7.98401
Sr 12.0022 62.2551 11.9936
Sr 11.9676 62.2856 15.9486
Sr 12.0258 62.2904 19.9133
Sr 12.1842 65.9742 0.0278175
Sr 12.0937 66.0793 3.98985
Sr 12.0495 66.1084 7.94083
Sr 12.0121 66.1296 11.8986
Sr 11.9721 66.1562 15.8842
Sr 11.9593 66.1327 19.8567
Sr 12.1716 69.953 -0.0142825
Sr 12.0936 69.9822 3.9473
Sr 12.0651 70.0016 7.9072
Sr 12.0066 70.0275 11.8898
Sr 11.946 70.0393 15.8418
Sr 11.8019 70.0576 19.8521
Sr 12.1548 73.9098 -0.0234278
Sr 12.0923 73.916 3.9169
Sr 12.0661 73.943 7.90168
Sr 12.0094 73.9297 11.8601
Sr 11.9373 73.9378 15.8613
Sr 11.8304 73.9691 19.831
Sr 16.1023 77.8485 0.0190146
Sr 16.0484 77.8628 3.98186
Sr 15.934 77.8554 7.96923
Sr 15.8905 77.8471 11.9655
Sr 15.8189 77.8326 15.9527
Sr 15.6638 77.8488 19.9821
Sr 16.0992 4.27883 0.0256636
Sr 16.0233 4.26732 4.00071
Sr 15.9602 4.22843 7.97311
Sr 15.8993 4.2377 11.9747
Sr 15.8368 4.2083 15.9631
Sr 15.7024 4.21145 19.9566
Sr 16.1324 8.2311 0.0598212
Sr 16.0281 8.18635 4.03622
Sr 15.9743 8.13693 8.00682
Sr 15.8923 8.11217 11.9672
Sr 15.8464 8.1093 15.9801
Sr 15.7366 8.11512 19.9433
Sr 16.14 12.1392 0.0767211
Sr 16.0176 12.1392 4.02232
Sr 15.9556 12.0452 8.00669
Sr 15.9044 12.0291 12.0007
Sr 15.8305 11.9972 15.9918
Sr 15.7929 12.0889 20.0258
Sr 16.1385 16.1041 0.098926
Sr 16.0086 16.0363 4.0788
Sr 15.9418 15.9644 8.06143
Sr 15.9126 15.9017 12.0345
Sr 15.8677 15.8821 16.0107
Sr 15.8996 15.856 19.9856
Sr 16.1432 20.1113 0.169375
Sr 16.0078 19.9241 4.10127
Sr 15.9349 19.8396 8.07881
Sr 15.8974 19.794 12.0908
Sr 15.9041 19.749 16.1167
Sr 16.0018 19.7443 20.1506
Sr 16.0919 24.0195 0.177385
Sr 15.9869 23.8291 4.18808
Sr 15.9367 23.7006 8.2015
Sr 15.8821 23.6383 12.2295
Sr 15.865 23.595 16.2167
Sr 15.9479 23.4846 20.2346
Sr 16.0825 27.9787 0.254241
Sr 16.0018 27.719 4.29049
Sr 15.9229 27.5561 8.29518
Sr 15.8459 27.4696 12.2881
Sr 15.8585 27.4173 16.3041
Sr 15.9316 27.4159 20.3185
Sr 16.0984 31.8553 0.390888
Sr 15.9773 31.5143 4.45361
Sr 15.9041 31.3661 8.44654
Sr 15.8541 31.3373 12.4176
Sr 15.8503 31.2845 16.421
Sr 15.9645 31.2676 20.4475
Sr 16.0921 35.665 0.479479
Sr 15.9839 35.2546 4.62777
Sr 15.895 35.2218 8.57923
Sr 15.8663 35.1934 12.5185
Sr 15.8543 35.205 16.4934
Sr 15.9984 35.166 20.5051
Sr 16.0345 39.0624 0.918693
Sr 15.9766 39.0755 4.7665
Sr 15.9235 39.0829 8.63123
Sr 15.8714 39.0619 12.5413
Sr 15.8981 39.1038 16.5293
Sr 15.9844 39.1028 20.5326
Sr 16.1069 42.5077 0.503196
Sr 15.9557 42.8984 4.62018
Sr 15.9343 42.9711 8.55581
Sr 15.8725 42.9466 12.5107
Sr 15.8999 42.9378 16.4901
Sr 16.0004 42.9712 20.5524
Sr 16.0826 46.2986 0.349178
Sr 15.9634 46.6616 4.40607
Sr 15.9319 46.7886 8.46185
Sr 15.8899 46.8374 12.4618
Sr 15.8894 46.8267 16.4565
Sr 16.0179 46.8526 20.4654
Sr 16.1369 50.239 0.267335
Sr 15.996 50.4911 4.27683
Sr 15.9182 50.5979 8.29966
Sr 15.8726 50.6794 12.3264
Sr 15.9045 50.6761 16.3253
Sr 15.941 50.7194 20.3447
Sr 16.1092 54.1914 0.183683
Sr 16.0326 54.3203 4.1638
Sr 15.9469 54.4403 8.17457
Sr 15.9009 54.5021 12.2074
Sr 15.8825 54.5393 16.2021
Sr 15.9516 54.6136 20.2094
Sr 16.0872 58.1449 0.150313
Sr 16.0236 58.2279 4.13496
Sr 15.96 58.3276 8.09548
Sr 15.8999 58.3859 12.1236
Sr 15.8717 58.4158 16.1318
Sr 15.9325 58.4153 20.0744
Sr 16.1212 62.0938 0.118628
Sr 16.0117 62.1398 4.07424
Sr 15.9393 62.1945 8.05211
Sr 15.9002 62.2664 12.0329
Sr 15.8536 62.2516 16.0193
Sr 15.8391 62.2491 19.9714
Sr 16.1234 65.9821 0.0732224
Sr 16.0229 66.0667 4.04792
Sr 15.9353 66.1178 8.03351
Sr 15.916 66.1315 12.0162
Sr 15.8514 66.1677 15.971
Sr 15.7297 66.1564 19.9747
Sr 16.1196 69.9645 0.0284921
Sr 16.0128 70.0057 3.99565
Sr 15.9614 70.0323 7.99239
Sr 15.8967 70.0598 11.98
Sr 15.8191 70.0671 15.9722
Sr 15.7214 70.0703 19.9611
Sr 16.1096 73.8876 -0.00855313
Sr 16.0243 73.9089 3.99947
Sr 15.9657 73.9478 7.97757
Sr 15.886 73.9457 11.9609
Sr 15.8125 73.9481 15.9744
Sr 15.6753 73.9513 19.9751
Sr 20.0438 77.8665 0.130164
Sr 19.9485 77.857 4.07002
Sr 19.8467 77.8345 8.0547
Sr 19.7513 77.8479 12.0793
Sr 19.6851 77.8415 16.1156
Sr 19.5576 77.8422 20.1173
Sr 20.0777 4.29549 0.102383
Sr 19.9347 4.24077 4.09793
Sr 19.8381 4.23478 8.08118
Sr 19.7718 4.21816 12.0815
Sr 19.6967 4.21459 16.0824
Sr 19.5535 4.22993 20.1334
Sr 20.0568 8.23373 0.127841
Sr 19.9585 8.17378 4.12007
Sr 19.8588 8.14144 8.07121
Sr 19.7757 8.12779 12.0865
Sr 19.7111 8.10741 16.1204
Sr 19.5793 8.17112 20.1547
Sr 20.0821 12.1593 0.130754
Sr 19.9687 12.0808 4.08301
Sr 19.8318 12.0813 8.05461
Sr 19.7729 12.02 12.1097
Sr 19.7025 11.984 16.0936
Sr 19.5739 12.0636 20.1549
Sr 20.0402 16.1311 0.154823
Sr 19.9494 16.0195 4.09885
Sr 19.8378 15.9264 8.09525
Sr 19.7899 15.9063 12.1202
Sr 19.738 15.8705 16.0923
Sr 19.6353 15.8415 20.0271
Sr 20.081 20.0861 0.135089
Sr 19.9334 19.9348 4.14646
Sr 19.8353 19.8533 8.12881
Sr 19.7787 19.7464 12.173
Sr 19.7314 19.7421 16.1504
Sr 19.7422 19.8442 20.092
Sr 20.043 24.0241 0.200181
Sr 19.9346 23.8341 4.1991
Sr 19.816 23.6915 8.21107
Sr 19.7556 23.6464 12.2184
Sr 19.7567 23.6123 16.2338
Sr 19.7796 23.6087 20.1971
Sr 20.0707 27.9189 0.285868
Sr 19.9158 27.6705 4.30333
Sr 19.7916 27.5505 8.3263
Sr 19.7021 27.4798 12.3092
Sr 19.7065 27.4653 16.2916
Sr 19.8088 27.3804 20.3049
Sr 19.983 31.7827 0.419904
Sr 19.8891 31.499 4.4317
Sr 19.8086 31.3724 8.43756
Sr 19.7312 31.3469 12.3833
Sr 19.6839 31.3188 16.3504
Sr 19.7857 31.3125 20.3538
Sr 19.9959 35.6858 0.510038
Sr 19.8853 35.2775 4.61817
Sr 19.7964 35.1993 8.54468
Sr 19.7378 35.1918 12.4995
Sr 19.7025 35.1771 16.4279
Sr 19.7798 35.1826 20.4293
Sr 19.9362 39.089 0.920597
Sr 19.8696 39.0816 4.75802
Sr 19.7924 39.0934 8.60395
Sr 19.7312 39.0896 12.515
Sr 19.7135 39.0896 16.4816
Sr 19.823 39.0707 20.499
Sr 20.0622 42.5188 0.475872
Sr 19.8949 42.9245 4.59855
Sr 19.8069 42.9685 8.54505
Sr 19.7381 42.9782 12.475
Sr 19.7592 42.9641 16.4538
Sr 19.8723 42.9569 20.4948
Sr 20.0188 46.3829 0.406442
Sr 19.9023 46.6724 4.41668
Sr 19.8002 46.7989 8.43752
Sr 19.7236 46.8249 12.436
Sr 19.7415 46.8408 16.4089
Sr 19.8357 46.8151 20.4319
Sr 20.0459 50.25 0.276297
Sr 19.9157 50.4753 4.26008
Sr 19.8142 50.6174 8.29095
Sr 19.7783 50.6939 12.3261
Sr 19.7721 50.6916 16.309
Sr 19.8289 50.7189 20.3134
Sr 20.0698 54.194 0.208461
Sr 19.9195 54.356 4.1984
Sr 19.8424 54.4381 8.21887
Sr 19.7749 54.5356 12.2421
Sr 19.7753 54.5586 16.2281
Sr 19.8265 54.4849 20.1832
Sr 20.0453 58.0933 0.183567
Sr 19.917 58.2461 4.14319
Sr 19.8562 58.3128 8.17322
Sr 19.797 58.4079 12.1818
Sr 19.749 58.4132 16.1871
Sr 19.7545 58.3333 20.1413
Sr 20.0765 62.0534 0.16533
Sr 19.9286 62.1444 4.14077
Sr 19.8565 62.2146 8.1207
Sr 19.7828 62.2588 12.1266
Sr 19.724 62.2941 16.1307
Sr 19.6334 62.2267 20.1522
Sr 20.039 66.0192 0.142664
Sr 19.9473 66.0796 4.12671
Sr 19.8432 66.1097 8.08396
Sr 19.7642 66.1558 12.0852
Sr 19.7325 66.1561 16.1046
Sr 19.642 66.1334 20.1037
Sr 20.0539 69.9767 0.11422
Sr 19.9522 69.9981 4.11095
Sr 19.8515 70.0133 8.08336
Sr 19.7616 70.0105 12.0893
Sr 19.706 70.0575 16.1035
Sr 19.5655 70.0357 20.1189
Sr 20.0786 73.9135 0.131615
Sr 19.9351 73.9391 4.09013
Sr 19.8449 73.9242 8.07331
Sr 19.7501 73.9321 12.0766
Sr 19.6726 73.9561 16.109
Sr 19.5881 73.9735 20.1375
Sr 24.0182 77.8187 0.201125
Sr 23.8471 77.8681 4.20088
Sr 23.7137 77.8532 8.22297
Sr 23.6162 77.8388 12.2203
Sr 23.5197 77.8584 16.2698
Sr 23.4331 77.8763 20.2869
Sr 23.9894 4.24254 0.228851
Sr 23.8628 4.23392 4.19532
Sr 23.7067 4.22418 8.20127
Sr 23.6175 4.22354 12.2216
Sr 23.5337 4.23789 16.2657
Sr 23.4248 4.27469 20.2819
Sr 24.0103 8.19584 0.225531
Sr 23.8699 8.15045 4.18745
Sr 23.7387 8.14664 8.207
Sr 23.6408 8.13066 12.1974
Sr 23.549 8.14587 16.2436
Sr 23.4419 8.167 20.2887
Sr 23.9969 12.1531 0.198235
Sr 23.8469 12.0386 4.16976
Sr 23.6963 12.0625 8.19813
Sr 23.6415 12.0317 12.2082
Sr 23.5982 12.0038 16.2401
Sr 23.492 12.0657 20.2682
Sr 24.0189 16.1089 0.188728
Sr 23.8263 16.0043 4.18668
Sr 23.7254 15.9325 8.18477
Sr 23.6338 15.9107 12.2046
Sr 23.5896 15.8905 16.2263
Sr 23.5678 15.9443 20.2347
Sr 23.9618 20.0495 0.190972
Sr 23.8448 19.8941 4.19538
Sr 23.7252 19.8219 8.19667
Sr 23.6167 19.7465 12.2367
Sr 23.5914 19.7561 16.2212
Sr 23.5952 19.8601 20.2201
Sr 24.0152 23.95 0.260096
Sr 23.8158 23.8085 4.25489
Sr 23.6866 23.6861 8.26238
Sr 23.6185 23.5997 12.2916
Sr 23.5954 23.6136 16.2381
Sr 23.6474 23.6915 20.1808
Sr 23.9473 27.892 0.300719
Sr 23.8192 27.6885 4.31933
Sr 23.6901 27.529 8.35363
Sr 23.6081 27.47 12.3467
Sr 23.5888 27.441 16.2791
Sr 23.6744 27.4625 20.2258
Sr 23.9895 31.8106 0.436366
Sr 23.8 31.4836 4.4672
Sr 23.6533 31.3584 8.46175
Sr 23.6162 31.3185 12.4216
Sr 23.5625 31.2962 16.3315
Sr 23.5829 31.2677 20.2491
Sr 23.9255 35.6205 0.616311
Sr 23.7858 35.2502 4.6402
Sr 23.6518 35.2134 8.56677
Sr 23.5751 35.199 12.4842
Sr 23.5556 35.2012 16.3641
Sr 23.4806 35.1422 20.2522
Sr 23.8707 39.1351 0.904836
Sr 23.7601 39.1068 4.74181
Sr 23.6497 39.0732 8.61188
Sr 23.596 39.092 12.5091
Sr 23.564 39.0689 16.4239
Sr 23.5717 38.9897 20.3404
Sr 23.9513 42.4977 0.450739
Sr 23.795 42.9252 4.61751
Sr 23.6724 42.9703 8.56776
Sr 23.6186 42.9857 12.4667
Sr 23.5794 42.9498 16.4239
Sr 23.6798 42.9201 20.4031
Sr 23.9689 46.3329 0.382443
Sr 23.8185 46.6602 4.42656
Sr 23.6813 46.7914 8.47077
Sr 23.5903 46.8404 12.452
Sr 23.581 46.8201 16.3823
Sr 23.6472 46.886 20.303
Sr 23.9721 50.2511 0.299583
Sr 23.8057 50.4941 4.33859
Sr 23.6749 50.6292 8.35301
Sr 23.6439 50.6727 12.3463
Sr 23.6302 50.7007 16.3224
Sr 23.6601 50.6584 20.2745
Sr 23.9733 54.193 0.251487
Sr 23.8385 54.3465 4.25375
Sr 23.7056 54.4886 8.25603
Sr 23.6528 54.5345 12.276
Sr 23.6308 54.5513 16.2623
Sr 23.6486 54.4731 20.2531
Sr 23.9856 58.1584 0.278294
Sr 23.8332 58.2474 4.23514
Sr 23.698 58.3483 8.24532
Sr 23.6344 58.4125 12.2408
Sr 23.6181 58.4214 16.2444
Sr 23.5507 58.306 20.294
Sr 23.9869 62.0768 0.210408
Sr 23.8489 62.167 4.1962
Sr 23.7437 62.2146 8.20816
Sr 23.6298 62.2669 12.2412
Sr 23.595 62.2778 16.2438
Sr 23.5429 62.2239 20.2729
Sr 23.9821 66.0343 0.223655
Sr 23.8629 66.0623 4.1966
Sr 23.7364 66.1178 8.20581
Sr 23.6187 66.1474 12.2232
Sr 23.5546 66.1482 16.2658
Sr 23.5066 66.0918 20.2778
Sr 23.9834 69.947 0.214997
Sr 23.8446 69.9957 4.20447
Sr 23.7258 70.0151 8.22897
Sr 23.6346 70.0365 12.2309
Sr 23.5503 70.0381 16.2516
Sr 23.4553 70.0046 20.2864
Sr 24.0437 73.9304 0.221419
Sr 23.8613 73.9285 4.21505
Sr 23.7172 73.9513 8.20727
Sr 23.6301 73.933 12.2413
Sr 23.541 73.915 16.2499
Sr 23.4286 73.9294 20.286
Sr 27.9842 77.845 0.318952
Sr 27.7236 77.8639 4.3492
Sr 27.5801 77.871 8.40125
Sr 27.4545 77.8705 12.3782
Sr 27.3868 77.8654 16.4098
Sr 27.3088 77.8627 20.3898
Sr 27.9545 4.2443 0.313138
Sr 27.7137 4.26105 4.31932
Sr 27.5621 4.24715 8.36427
Sr 27.4722 4.19749 12.3727
Sr 27.3909 4.22188 16.3828
Sr 27.3197 4.28152 20.3909
Sr 27.9618 8.20686 0.296196
Sr 27.7129 8.14795 4.3384
Sr 27.5637 8.144 8.34373
Sr 27.4749 8.13089 12.3684
Sr 27.4122 8.13235 16.3856
Sr 27.3389 8.18836 20.4257
Sr 27.9325 12.1641 0.273284
Sr 27.6898 12.0687 4.29634
Sr 27.5818 12.0601 8.32625
Sr 27.4852 12.0102 12.3494
Sr 27.4321 12.0317 16.4015
Sr 27.3626 12.0893 20.4287
Sr 27.9445 16.1046 0.29059
Sr 27.6861 16.0047 4.29164
Sr 27.5676 15.9457 8.29196
Sr 27.4787 15.8817 12.3288
Sr 27.4435 15.9151 16.3688
Sr 27.3941 16.0127 20.4249
Sr 27.9445 20.0543 0.247275
Sr 27.6863 19.8942 4.2916
Sr 27.5474 19.8275 8.34288
Sr 27.4989 19.7549 12.3293
Sr 27.465 19.7712 16.3282
Sr 27.4561 19.8653 20.3669
Sr 27.9259 23.9951 0.282329
Sr 27.7016 23.8055 4.32014
Sr 27.5344 23.671 8.36837
Sr 27.4842 23.5992 12.3632
Sr 27.5053 23.6158 16.3284
Sr 27.4651 23.6893 20.323
Sr 27.9016 27.8745 0.393722
Sr 27.685 27.661 4.36988
Sr 27.5208 27.5208 8.39864
Sr 27.4591 27.4762 12.3873
Sr 27.4715 27.4515 16.3263
Sr 27.5533 27.4868 20.256
Sr 27.8743 31.7949 0.454305
Sr 27.6615 31.4906 4.49939
Sr 27.5178 31.3609 8.51223
Sr 27.4461 31.3046 12.4249
Sr 27.4522 31.3186 16.3342
Sr 27.5102 31.3119 20.1589
Sr 27.9058 35.648 0.527492
Sr 27.6413 35.263 4.66692
Sr 27.5381 35.2332 8.57001
Sr 27.4673 35.1926 12.4909
Sr 27.4353 35.1838 16.358
Sr 27.5134 35.1282 20.2247
Sr 27.7492 39.0641 0.971858
Sr 27.6516 39.097 4.79357
Sr 27.5148 39.0837 8.66344
Sr 27.4544 39.0808 12.5252
Sr 27.408 39.0866 16.3996
Sr 27.5411 39.0544 20.2377
Sr 27.8782 42.5035 0.467307
Sr 27.6706 42.9118 4.66278
Sr 27.5089 42.9875 8.59376
Sr 27.443 42.9703 12.5046
Sr 27.4402 42.9793 16.3998
Sr 27.4967 42.8591 20.3004
Sr 27.919 46.3526 0.453389
Sr 27.6536 46.6742 4.50337
Sr 27.5216 46.81 8.49929
Sr 27.4739 46.8549 12.4621
Sr 27.4346 46.8212 16.378
Sr 27.5615 46.8135 20.2372
Sr 27.9192 50.2811 0.359248
Sr 27.6923 50.4937 4.3962
Sr 27.5485 50.6555 8.42604
Sr 27.4904 50.7 12.4314
Sr 27.4796 50.7136 16.3828
Sr 27.4946 50.6886 20.2462
Sr 27.918 54.1936 0.307558
Sr 27.6719 54.3673 4.32657
Sr 27.5627 54.4845 8.37921
Sr 27.4856 54.5476 12.3888
Sr 27.4869 54.5469 16.3524
Sr 27.4462 54.4688 20.3573
Sr 27.9429 58.1609 0.296768
Sr 27.7011 58.2622 4.29584
Sr 27.5575 58.3569 8.32942
Sr 27.4982 58.4265 12.353
Sr 27.4621 58.4036 16.3819
Sr 27.4383 58.2914 20.4046
Sr 27.9264 62.0583 0.322689
Sr 27.7029 62.1663 4.31247
Sr 27.5826 62.2454 8.34989
Sr 27.4896 62.274 12.3691
Sr 27.4553 62.2361 16.4169
Sr 27.3976 62.1728 20.4558
Sr 27.9627 66.0076 0.282373
Sr 27.7056 66.086 4.31693
Sr 27.5773 66.1355 8.37086
Sr 27.4952 66.1315 12.3849
Sr 27.4327 66.1275 16.3897
Sr 27.3725 66.0772 20.425
Sr 27.9329 69.942 0.325776
Sr 27.6986 69.9975 4.33094
Sr 27.5807 70.0251 8.35076
Sr 27.4755 70.0469 12.3753
Sr 27.4379 70.0514 16.3812
Sr 27.3203 70.0088 20.4065
Sr 27.9519 73.9086 0.330831
Sr 27.6863 73.9066 4.35734
Sr 27.5506 73.9643 8.31587
Sr 27.471 73.9559 12.4031
Sr 27.3967 73.942 16.4039
Sr 27.3259 73.9277 20.4262
Sr 31.849 77.8383 0.48312
Sr 31.5422 77.8486 4.50718
Sr 31.3913 77.8567 8.52956
Sr 31.3048 77.8524 12.5272
Sr 31.3025 77.8607 16.5237
Sr 31.214 77.8565 20.5155
Sr 31.8571 4.25526 0.468803
Sr 31.5196 4.25437 4.50465
Sr 31.4048 4.23944 8.53904
Sr 31.3281 4.23034 12.53
Sr 31.2771 4.24447 16.5212
Sr 31.2216 4.25336 20.5169
Sr 31.8768 8.21293 0.46179
Sr 31.5327 8.16877 4.46936
Sr 31.3771 8.14785 8.52836
Sr 31.3158 8.11942 12.5304
Sr 31.2806 8.14807 16.4947
Sr 31.2541 8.20202 20.4955
Sr 31.8438 12.1468 0.434626
Sr 31.5185 12.0886 4.45484
Sr 31.3821 12.0587 8.48019
Sr 31.3153 12.0208 12.4931
Sr 31.309 12.014 16.4876
Sr 31.2272 12.1053 20.5325
Sr 31.8444 16.0901 0.403517
Sr 31.5036 16.0113 4.4141
Sr 31.3813 15.9344 8.46376
Sr 31.3469 15.9118 12.475
Sr 31.2906 15.9263 16.4755
Sr 31.2494 15.9826 20.5071
Sr 31.8122 20.0465 0.402502
Sr 31.5287 19.9116 4.44482
Sr 31.3999 19.8147 8.46406
Sr 31.331 19.7377 12.4513
Sr 31.3444 19.7386 16.4645
Sr 31.2806 19.8541 20.5255
Sr 31.8437 23.9669 0.395229
Sr 31.5142 23.781 4.43798
Sr 31.3761 23.682 8.45372
Sr 31.348 23.5823 12.4436
Sr 31.3486 23.5863 16.3996
Sr 31.3279 23.6777 20.4168
Sr 31.7984 27.9309 0.42574
Sr 31.5 27.6365 4.47342
Sr 31.3592 27.512 8.49378
Sr 31.3182 27.4519 12.4463
Sr 31.35 27.4476 16.3787
Sr 31.3554 27.4704 20.3416
Sr 31.7932 31.7946 0.527135
Sr 31.5142 31.4746 4.59725
Sr 31.3518 31.3696 8.59966
Sr 31.3154 31.3195 12.4955
Sr 31.3404 31.2869 16.3396
Sr 31.4067 31.3333 20.1976
Sr 31.77 35.6616 0.551946
Sr 31.4984 35.2262 4.73396
Sr 31.3568 35.198 8.65765
Sr 31.3169 35.2268 12.5302
Sr 31.3148 35.182 16.3675
Sr 31.3338 35.2182 20.1577
Sr 31.6645 38.9912 0.975331
Sr 31.4688 39.0921 4.84107
Sr 31.356 39.0581 8.70552
Sr 31.3136 39.0766 12.5439
Sr 31.2913 39.0946 16.4051
Sr 31.2558 39.102 20.2521
Sr 31.8215 42.551 0.569639
Sr 31.4887 42.9221 4.74056
Sr 31.3485 42.9711 8.67297
Sr 31.3043 42.9609 12.5416
Sr 31.2975 42.9718 16.4098
Sr 31.324 42.8633 20.3482
Sr 31.7905 46.4057 0.542731
Sr 31.4888 46.6679 4.58737
Sr 31.3734 46.8069 8.6169
Sr 31.3341 46.8611 12.5232
Sr 31.3293 46.8134 16.4199
Sr 31.3554 46.7727 20.3079
Sr 31.8207 50.3039 0.440148
Sr 31.509 50.5279 4.48976
Sr 31.366 50.649 8.51131
Sr 31.3121 50.687 12.4921
Sr 31.3437 50.6975 16.4409
Sr 31.3861 50.6366 20.3677
Sr 31.8241 54.2215 0.455189
Sr 31.5445 54.3975 4.46235
Sr 31.3857 54.486 8.50846
Sr 31.3417 54.5545 12.4703
Sr 31.3597 54.5676 16.4388
Sr 31.3302 54.4599 20.4761
Sr 31.859 58.1595 0.426576
Sr 31.5275 58.2634 4.46824
Sr 31.3809 58.3626 8.51326
Sr 31.364 58.3976 12.476
Sr 31.3207 58.3831 16.4625
Sr 31.308 58.2695 20.5696
Sr 31.8529 62.112 0.459047
Sr 31.5533 62.1877 4.48571
Sr 31.3979 62.2279 8.47308
Sr 31.3346 62.2823 12.5023
Sr 31.3282 62.2637 16.5499
Sr 31.2562 62.164 20.5531
Sr 31.8233 66.0069 0.460487
Sr 31.5093 66.0825 4.48267
Sr 31.3917 66.1227 8.52056
Sr 31.3366 66.1577 12.5343
Sr 31.2925 66.1435 16.5256
Sr 31.2544 66.0761 20.5354
Sr 31.8505 69.9805 0.472388
Sr 31.5187 70.0029 4.46972
Sr 31.3921 70.0506 8.52361
Sr 31.3335 70.0502 12.5044
Sr 31.2795 70.0367 16.5088
Sr 31.2185 69.9981 20.5223
Sr 31.8351 73.9335 0.521515
Sr 31.5263 73.9493 4.49703
Sr 31.3666 73.9363 8.49615
Sr 31.3311 73.943 12.4873
Sr 31.2795 73.944 16.4959
Sr 31.2069 73.9328 20.5099
Sr 35.7043 77.8461 0.604218
Sr 35.2857 77.848 4.73597
Sr 35.218 77.8665 8.67559
Sr 35.17 77.858 12.5954
Sr 35.1886 77.8514 16.5697
Sr 35.1476 77.8571 20.5607
Sr 35.6861 4.26642 0.60173
Sr 35.2765 4.23011 4.70041
Sr 35.2184 4.24732 8.66051
Sr 35.2024 4.23306 12.6214
Sr 35.1555 4.24341 16.5973
Sr 35.1644 4.23991 20.5853
Sr 35.6573 8.20983 0.564134
Sr 35.2695 8.15177 4.69918
Sr 35.2387 8.136 8.66761
Sr 35.1776 8.12468 12.6133
Sr 35.1805 8.16603 16.59
Sr 35.1264 8.18878 20.5998
Sr 35.6537 12.1392 0.496899
Sr 35.2582 12.0711 4.65001
Sr 35.202 12.0363 8.60361
Sr 35.1847 12.0372 12.5803
Sr 35.1791 12.0354 16.5874
Sr 35.1313 12.1172 20.6211
Sr 35.684 16.0483 0.48256
Sr 35.2753 15.9861 4.62539
Sr 35.1988 15.9267 8.60145
Sr 35.1878 15.8688 12.583
Sr 35.1836 15.9137 16.5563
Sr 35.1601 16.0115 20.6347
Sr 35.7189 19.9737 0.467113
Sr 35.2508 19.8914 4.61423
Sr 35.2184 19.7948 8.56592