LAMMPS data file. CGCMM style. atom_style charge
 22830 atoms
 0 bonds
 0 angles
 0 dihedrals
 0 impropers
 5 atom types
 0 bond types
 0 angle types
 0 dihedral types
 0 improper types

 0.5857 78.3100  xlo xhi
 0.5857 78.3100  ylo yhi
 -25.4480 25.4480  zlo zhi

 Masses

 1 87.620003 # Sr
 2 47.867001 # Ti
 3 15.999400 # O
 4 137.327 # Ba
 5 118.71 # Sn

 Atoms

1 1 2.0 77.9539 77.9539 -0.0145346
2 1 2.0 77.9503 77.9503 3.93558
3 1 2.0 77.9492 77.9492 7.86435
4 1 2.0 77.9471 77.9471 11.781
5 1 2.0 77.9442 77.9442 15.6657
6 1 2.0 77.9297 77.9297 19.5581
7 1 2.0 77.9527 4.19914 -0.00304397
8 1 2.0 77.9494 4.18008 3.95108
9 1 2.0 77.9482 4.16469 7.88817
10 1 2.0 77.9478 4.15006 11.8183
11 1 2.0 77.9471 4.12666 15.7401
12 1 2.0 77.9216 4.06783 19.7103
13 1 2.0 77.9516 8.17103 0.0262298
14 1 2.0 77.9478 8.13225 3.98969
15 1 2.0 77.9454 8.09962 7.94314
16 1 2.0 77.9457 8.06441 11.8982
17 1 2.0 77.9472 8.01003 15.8825
18 1 2.0 77.9335 7.83591 19.9697
19 1 2.0 77.9505 12.1398 0.0705248
20 1 2.0 77.9468 12.0737 4.04838
21 1 2.0 77.9434 12.0204 8.02648
22 1 2.0 77.9444 11.9653 12.0168
23 1 2.0 77.9492 11.8718 16.0466
24 1 2.0 77.9529 11.6762 20.144
25 1 2.0 77.9482 16.1023 0.129766
26 1 2.0 77.9453 16.004 4.12471
27 1 2.0 77.9425 15.923 8.12921
28 1 2.0 77.9449 15.8425 12.1562
29 1 2.0 77.9548 15.725 16.2095
30 1 2.0 77.9579 15.5588 20.2718
31 1 2.0 77.9461 20.0585 0.201668
32 1 2.0 77.9436 19.9191 4.21807
33 1 2.0 77.9422 19.8076 8.25046
34 1 2.0 77.9456 19.705 12.3049
35 1 2.0 77.9557 19.5902 16.3576
36 1 2.0 77.9613 19.4519 20.3885
37 1 2.0 77.9436 24.0059 0.288777
38 1 2.0 77.942 23.8098 4.33252
39 1 2.0 77.9423 23.6702 8.39284
40 1 2.0 77.9469 23.5605 12.4557
41 1 2.0 77.9534 23.4599 16.4944
42 1 2.0 77.9597 23.3528 20.5064
43 1 2.0 77.9427 27.9341 0.396521
44 1 2.0 77.9416 27.6636 4.48078
45 1 2.0 77.9429 27.5118 8.55356
46 1 2.0 77.9473 27.4162 12.6038
47 1 2.0 77.9527 27.3443 16.6195
48 1 2.0 77.9591 27.2644 20.6144
49 1 2.0 77.9388 31.7991 0.583249
50 1 2.0 77.9421 31.4796 4.66399
51 1 2.0 77.9439 31.3389 8.72273
52 1 2.0 77.9477 31.284 12.7356
53 1 2.0 77.9524 31.2426 16.7222
54 1 2.0 77.9582 31.1939 20.7027
55 1 2.0 77.9519 35.5952 0.809427
56 1 2.0 77.9418 35.232 4.88782
57 1 2.0 77.945 35.188 8.86304
58 1 2.0 77.9484 35.1707 12.8262
59 1 2.0 77.9518 35.1565 16.7892
60 1 2.0 77.957 35.1348 20.7584
61 1 2.0 77.9506 39.0618 1.13263
62 1 2.0 77.9428 39.0703 5.01447
63 1 2.0 77.9455 39.0743 8.91168
64 1 2.0 77.9485 39.0774 12.8559
65 1 2.0 77.9525 39.0791 16.8089
66 1 2.0 77.9575 39.0827 20.7736
67 1 2.0 77.9355 42.4859 0.630042
68 1 2.0 77.9432 42.9089 4.85865
69 1 2.0 77.9455 42.9606 8.84627
70 1 2.0 77.9484 42.9825 12.815
71 1 2.0 77.9523 43.0021 16.7802
72 1 2.0 77.9568 43.0285 20.7511
73 1 2.0 77.9403 46.35 0.554022
74 1 2.0 77.9432 46.6678 4.63449
75 1 2.0 77.9455 46.809 8.69645
76 1 2.0 77.9475 46.8662 12.7138
77 1 2.0 77.9505 46.9101 16.706
78 1 2.0 77.9549 46.9656 20.6905
79 1 2.0 77.9434 50.2371 0.376863
80 1 2.0 77.9435 50.4887 4.45087
81 1 2.0 77.945 50.6372 8.52211
82 1 2.0 77.9445 50.7288 12.573
83 1 2.0 77.9463 50.8028 16.5933
84 1 2.0 77.9503 50.8883 20.5942
85 1 2.0 77.9457 54.1718 0.269782
86 1 2.0 77.9444 54.3485 4.30705
87 1 2.0 77.9443 54.4795 8.35986
88 1 2.0 77.9402 54.5856 12.4173
89 1 2.0 77.9371 54.6838 16.4591
90 1 2.0 77.9418 54.7984 20.4791
91 1 2.0 77.9467 58.1193 0.183882
92 1 2.0 77.9455 58.2436 4.19494
93 1 2.0 77.9432 58.3463 8.21787
94 1 2.0 77.9361 58.4448 12.2634
95 1 2.0 77.9268 58.5581 16.3174
96 1 2.0 77.931 58.7009 20.3571
97 1 2.0 77.95 62.0747 0.114094
98 1 2.0 77.9465 62.1608 4.10361
99 1 2.0 77.9419 62.2353 8.0965
100 1 2.0 77.9338 62.3159 12.1193
101 1 2.0 77.9266 62.4247 16.1673
102 1 2.0 77.9226 62.5911 20.2199
103 1 2.0 77.9519 66.0382 0.0577692
104 1 2.0 77.9478 66.0945 4.03004
105 1 2.0 77.9436 66.1443 7.99745
106 1 2.0 77.9377 66.1996 11.9852
107 1 2.0 77.9316 66.2672 15.994
108 1 2.0 77.9168 66.445 20.0698
109 1 2.0 77.9524 70.0059 0.0161525
110 1 2.0 77.9495 70.0392 3.97653
111 1 2.0 77.9469 70.0655 7.92372
112 1 2.0 77.9434 70.0956 11.8765
113 1 2.0 77.9382 70.1462 15.8277
114 1 2.0 77.9127 70.2512 19.8312
115 1 2.0 77.9534 73.9787 -0.00873138
116 1 2.0 77.9498 73.9913 3.9444
117 1 2.0 77.9486 74.0026 7.877
118 1 2.0 77.947 74.0152 11.8029
119 1 2.0 77.9452 74.0348 15.7089
120 1 2.0 77.9207 74.1058 19.6224
121 1 2.0 4.19914 77.9527 -0.00304399
122 1 2.0 4.18008 77.9494 3.95108
123 1 2.0 4.16469 77.9482 7.88817
124 1 2.0 4.15006 77.9478 11.8183
125 1 2.0 4.12666 77.9471 15.7401
126 1 2.0 4.06783 77.9216 19.7103
127 1 2.0 4.19647 4.19647 0.00735179
128 1 2.0 4.17633 4.17633 3.96564
129 1 2.0 4.16012 4.16012 7.90743
130 1 2.0 4.14493 4.14493 11.8495
131 1 2.0 4.11001 4.11001 15.7844
132 1 2.0 4.02912 4.02912 19.7195
133 1 2.0 4.19016 8.16646 0.0344513
134 1 2.0 4.16865 8.12713 4.00126
135 1 2.0 4.15194 8.0947 7.958
136 1 2.0 4.13827 8.06255 11.9233
137 1 2.0 4.104 8.01167 15.8991
138 1 2.0 4.06904 7.92787 19.9099
139 1 2.0 4.18043 12.1321 0.0762663
140 1 2.0 4.1597 12.0687 4.0558
141 1 2.0 4.14283 12.016 8.03404
142 1 2.0 4.13076 11.9631 12.0259
143 1 2.0 4.11377 11.8885 16.0454
144 1 2.0 4.171 11.7148 20.1383
145 1 2.0 4.16805 16.095 0.131857
146 1 2.0 4.14937 15.9983 4.12634
147 1 2.0 4.13588 15.9211 8.12924
148 1 2.0 4.13023 15.8469 12.1514
149 1 2.0 4.1349 15.7488 16.2
150 1 2.0 4.19837 15.5783 20.2724
151 1 2.0 4.15475 20.0508 0.199273
152 1 2.0 4.13952 19.9148 4.21386
153 1 2.0 4.1307 19.8093 8.24372
154 1 2.0 4.13343 19.7135 12.2939
155 1 2.0 4.15723 19.603 16.3551
156 1 2.0 4.2054 19.4622 20.4015
157 1 2.0 4.14318 23.999 0.28259
158 1 2.0 4.13043 23.8053 4.32407
159 1 2.0 4.12862 23.6718 8.3808
160 1 2.0 4.13929 23.5684 12.4443
161 1 2.0 4.16712 23.468 16.4919
162 1 2.0 4.21009 23.3618 20.5139
163 1 2.0 4.13545 27.9259 0.392601
164 1 2.0 4.12348 27.6599 4.46859
165 1 2.0 4.13049 27.5127 8.53755
166 1 2.0 4.14651 27.4203 12.5931
167 1 2.0 4.17203 27.3508 16.6167
168 1 2.0 4.20841 27.2724 20.6168
169 1 2.0 4.12795 31.7832 0.58216
170 1 2.0 4.12228 31.4766 4.64706
171 1 2.0 4.13228 31.3396 8.70352
172 1 2.0 4.15206 31.2864 12.724
173 1 2.0 4.17902 31.2466 16.7194
174 1 2.0 4.21212 31.199 20.7048
175 1 2.0 4.13295 35.6423 0.63152
176 1 2.0 4.11999 35.2273 4.85859
177 1 2.0 4.13262 35.1887 8.84185
178 1 2.0 4.15648 35.172 12.8147
179 1 2.0 4.18433 35.1581 16.7867
180 1 2.0 4.21746 35.1371 20.7613
181 1 2.0 4.09526 39.0333 1.10037
182 1 2.0 4.11931 39.0699 4.99148
183 1 2.0 4.13243 39.075 8.89019
184 1 2.0 4.15617 39.077 12.8437
185 1 2.0 4.18408 39.0782 16.8059
186 1 2.0 4.21799 39.0818 20.7757
187 1 2.0 4.10183 42.5257 0.73102
188 1 2.0 4.11918 42.906 4.84086
189 1 2.0 4.13206 42.9594 8.82633
190 1 2.0 4.15428 42.981 12.8024
191 1 2.0 4.18147 42.9991 16.7769
192 1 2.0 4.21549 43.0254 20.7521
193 1 2.0 4.11192 46.3658 0.54497
194 1 2.0 4.12038 46.669 4.61507
195 1 2.0 4.13222 46.8073 8.67697
196 1 2.0 4.15135 46.8621 12.7008
197 1 2.0 4.17656 46.9043 16.7016
198 1 2.0 4.21017 46.9589 20.6921
199 1 2.0 4.13492 50.2484 0.367118
200 1 2.0 4.12858 50.4896 4.43556
201 1 2.0 4.13202 50.634 8.50529
202 1 2.0 4.1442 50.722 12.5588
203 1 2.0 4.16328 50.791 16.5841
204 1 2.0 4.19457 50.875 20.5925
205 1 2.0 4.14842 54.1796 0.266251
206 1 2.0 4.13536 54.3516 4.29902
207 1 2.0 4.13149 54.4779 8.3487
208 1 2.0 4.13164 54.576 12.4029
209 1 2.0 4.14044 54.6648 16.4407
210 1 2.0 4.1676 54.7773 20.4665
211 1 2.0 4.16092 58.1267 0.184839
212 1 2.0 4.14469 58.2489 4.19392
213 1 2.0 4.13329 58.3469 8.21508
214 1 2.0 4.12001 58.4384 12.2535
215 1 2.0 4.12184 58.54 16.2924
216 1 2.0 4.14443 58.6721 20.3243
217 1 2.0 4.1716 62.0818 0.118717
218 1 2.0 4.1548 62.1666 4.1093
219 1 2.0 4.13697 62.2383 8.10291
220 1 2.0 4.11553 62.3133 12.1167
221 1 2.0 4.1064 62.4107 16.1441
222 1 2.0 4.10361 62.549 20.1691
223 1 2.0 4.18314 66.0434 0.0659577
224 1 2.0 4.16469 66.0997 4.04123
225 1 2.0 4.14489 66.1469 8.01066
226 1 2.0 4.12319 66.1973 11.9954
227 1 2.0 4.10843 66.2675 15.9951
228 1 2.0 4.08288 66.4667 20.0514
229 1 2.0 4.19248 70.0102 0.026744
230 1 2.0 4.17354 70.043 3.99086
231 1 2.0 4.15568 70.0693 7.94163
232 1 2.0 4.13463 70.1006 11.8998
233 1 2.0 4.11317 70.1529 15.8648
234 1 2.0 4.06012 70.1993 19.8507
235 1 2.0 4.19799 73.9812 0.00321427
236 1 2.0 4.17903 73.9939 3.9599
237 1 2.0 4.16323 74.006 7.89967
238 1 2.0 4.14595 74.0188 11.836
239 1 2.0 4.11817 74.0423 15.7657
240 1 2.0 4.03262 74.122 19.7066
241 1 2.0 8.17103 77.9516 0.0262297
242 1 2.0 8.13225 77.9478 3.98969
243 1 2.0 8.09962 77.9454 7.94314
244 1 2.0 8.06441 77.9457 11.8982
245 1 2.0 8.01003 77.9472 15.8825
246 1 2.0 7.83591 77.9335 19.9697
247 1 2.0 8.16646 4.19016 0.0344512
248 1 2.0 8.12713 4.16865 4.00126
249 1 2.0 8.0947 4.15194 7.958
250 1 2.0 8.06255 4.13827 11.9233
251 1 2.0 8.01167 4.104 15.8991
252 1 2.0 7.92787 4.06904 19.9099
253 1 2.0 8.15479 8.15479 0.0572224
254 1 2.0 8.11616 8.11616 4.03007
255 1 2.0 8.08336 8.08336 7.99582
256 1 2.0 8.05071 8.05071 11.9746
257 1 2.0 8.0039 8.0039 15.9332
258 1 2.0 7.95594 7.95594 19.8461
259 1 2.0 8.13734 12.1178 0.0917522
260 1 2.0 8.09982 12.0562 4.07501
261 1 2.0 8.06885 12.0065 8.05436
262 1 2.0 8.04181 11.9579 12.0447
263 1 2.0 8.01855 11.9142 16.0298
264 1 2.0 8.0202 11.8577 20.0152
265 1 2.0 8.11738 16.0774 0.137465
266 1 2.0 8.08208 15.9859 4.13333
267 1 2.0 8.05614 15.9157 8.13134
268 1 2.0 8.04042 15.8537 12.1424
269 1 2.0 8.04153 15.7876 16.1675
270 1 2.0 8.15255 15.6467 20.2502
271 1 2.0 8.09609 20.0328 0.195333
272 1 2.0 8.06464 19.903 4.20657
273 1 2.0 8.04629 19.8083 8.22933
274 1 2.0 8.04315 19.7292 12.2681
275 1 2.0 8.06773 19.6456 16.3208
276 1 2.0 8.17657 19.5077 20.3937
277 1 2.0 8.07479 23.9823 0.268733
278 1 2.0 8.04948 23.7968 4.30325
279 1 2.0 8.04028 23.6736 8.35162
280 1 2.0 8.05024 23.5847 12.4131
281 1 2.0 8.09495 23.4991 16.4743
282 1 2.0 8.1822 23.3946 20.518
283 1 2.0 8.05207 27.9104 0.370778
284 1 2.0 8.03748 27.6531 4.43629
285 1 2.0 8.03892 27.5158 8.49771
286 1 2.0 8.06103 27.4337 12.5612
287 1 2.0 8.11255 27.3727 16.6068
288 1 2.0 8.18826 27.2968 20.6247
289 1 2.0 8.02846 31.7697 0.545866
290 1 2.0 8.02833 31.4775 4.60046
291 1 2.0 8.03836 31.3423 8.65779
292 1 2.0 8.07028 31.294 12.692
293 1 2.0 8.12814 31.2578 16.7125
294 1 2.0 8.19722 31.2108 20.713
295 1 2.0 8.03445 35.6135 0.614441
296 1 2.0 8.02223 35.2269 4.80424
297 1 2.0 8.03712 35.1906 8.79356
298 1 2.0 8.07584 35.1768 12.783
299 1 2.0 8.13536 35.1628 16.7785
300 1 2.0 8.20544 35.1409 20.7708
301 1 2.0 7.9901 38.9935 1.05529
302 1 2.0 8.01996 39.0676 4.93669
303 1 2.0 8.03518 39.0752 8.84154
304 1 2.0 8.07537 39.0764 12.8126
305 1 2.0 8.1356 39.0771 16.7979
306 1 2.0 8.206 39.081 20.7853
307 1 2.0 8.02486 42.5553 0.731555
308 1 2.0 8.02433 42.9049 4.79168
309 1 2.0 8.03538 42.9568 8.77899
310 1 2.0 8.07222 42.975 12.7709
311 1 2.0 8.1328 42.9925 16.7699
312 1 2.0 8.2029 43.0192 20.7614
313 1 2.0 8.05385 46.3807 0.511188
314 1 2.0 8.03318 46.6706 4.571
315 1 2.0 8.03785 46.8034 8.63184
316 1 2.0 8.06884 46.8537 12.6699
317 1 2.0 8.1232 46.8902 16.6914
318 1 2.0 8.19215 46.9439 20.6981
319 1 2.0 8.06832 50.2626 0.346745
320 1 2.0 8.04125 50.4938 4.40393
321 1 2.0 8.04052 50.6305 8.46825
322 1 2.0 8.06174 50.7097 12.5298
323 1 2.0 8.10201 50.7666 16.5667
324 1 2.0 8.16319 50.8465 20.5896
325 1 2.0 8.08482 54.1942 0.256778
326 1 2.0 8.05468 54.3606 4.2812
327 1 2.0 8.04478 54.478 8.3259
328 1 2.0 8.05139 54.5612 12.3795
329 1 2.0 8.07437 54.6368 16.419
330 1 2.0 8.12103 54.7314 20.4503
331 1 2.0 8.10401 58.1429 0.18626
332 1 2.0 8.07114 58.261 4.19054
333 1 2.0 8.0515 58.3498 8.20913
334 1 2.0 8.03692 58.4244 12.2411
335 1 2.0 8.03398 58.4999 16.2612
336 1 2.0 8.04646 58.5926 20.2721
337 1 2.0 8.12599 62.0984 0.130629
338 1 2.0 8.08883 62.18 4.11956
339 1 2.0 8.0608 62.2439 8.11583
340 1 2.0 8.03036 62.3028 12.1237
341 1 2.0 8.01006 62.3759 16.1322
342 1 2.0 8.03267 62.5425 20.1651
343 1 2.0 8.14509 66.058 0.0854876
344 1 2.0 8.1061 66.1126 4.06388
345 1 2.0 8.07337 66.1549 8.04069
346 1 2.0 8.03787 66.1968 12.0302
347 1 2.0 8.00582 66.2467 16.0264
348 1 2.0 8.00341 66.3225 20.0138
349 1 2.0 8.16022 70.0201 0.0518478
350 1 2.0 8.12093 70.0523 4.02249
351 1 2.0 8.08851 70.0769 7.98577
352 1 2.0 8.0518 70.1031 11.9582
353 1 2.0 7.99567 70.1426 15.9393
354 1 2.0 7.95092 70.1213 19.932
355 1 2.0 8.16879 73.9858 0.0318308
356 1 2.0 8.12986 73.9992 3.99699
357 1 2.0 8.09758 74.0113 7.95317
358 1 2.0 8.06116 74.0237 11.9115
359 1 2.0 8.00387 74.0471 15.886
360 1 2.0 7.85157 74.1149 19.893
361 1 2.0 12.1398 77.9505 0.0705248
362 1 2.0 12.0737 77.9468 4.04838
363 1 2.0 12.0204 77.9434 8.02648
364 1 2.0 11.9653 77.9444 12.0168
365 1 2.0 11.8718 77.9492 16.0466
366 1 2.0 11.6762 77.9529 20.144
367 1 2.0 12.1321 4.18043 0.0762663
368 1 2.0 12.0687 4.1597 4.0558
369 1 2.0 12.016 4.14283 8.03404
370 1 2.0 11.9631 4.13076 12.0259
371 1 2.0 11.8885 4.11377 16.0454
372 1 2.0 11.7148 4.171 20.1383
373 1 2.0 12.1178 8.13734 0.0917522
374 1 2.0 12.0562 8.09982 4.07501
375 1 2.0 12.0065 8.06885 8.05436
376 1 2.0 11.9579 8.04181 12.0447
377 1 2.0 11.9142 8.01855 16.0298
378 1 2.0 11.8577 8.0202 20.0152
379 1 2.0 12.096 12.096 0.116737
380 1 2.0 12.0365 12.0365 4.10427
381 1 2.0 11.9918 11.9918 8.08963
382 1 2.0 11.9524 11.9524 12.0795
383 1 2.0 11.926 11.926 16.0413
384 1 2.0 11.9396 11.9396 19.9229
385 1 2.0 12.0696 16.0522 0.149978
386 1 2.0 12.0134 15.9668 4.14353
387 1 2.0 11.9767 15.9062 8.14057
388 1 2.0 11.9498 15.8612 12.143
389 1 2.0 11.9432 15.8324 16.1311
390 1 2.0 11.9912 15.8216 20.1135
391 1 2.0 12.042 20.0082 0.193523
392 1 2.0 11.99 19.8852 4.19672
393 1 2.0 11.9607 19.8026 8.21235
394 1 2.0 11.9466 19.7428 12.2388
395 1 2.0 11.9723 19.7 16.2716
396 1 2.0 12.1196 19.5906 20.3619
397 1 2.0 12.0133 23.9573 0.25194
398 1 2.0 11.9691 23.784 4.27293
399 1 2.0 11.9475 23.6722 8.31084
400 1 2.0 11.9476 23.6033 12.3627
401 1 2.0 12.0003 23.5559 16.4265
402 1 2.0 12.1444 23.4556 20.5059
403 1 2.0 11.9831 27.8845 0.337424
404 1 2.0 11.9532 27.648 4.38582
405 1 2.0 11.9388 27.5192 8.43825
406 1 2.0 11.9537 27.4523 12.4999
407 1 2.0 12.0351 27.4088 16.5764
408 1 2.0 12.1692 27.3366 20.6337
409 1 2.0 11.9531 31.7527 0.511279
410 1 2.0 11.9379 31.4733 4.54108
411 1 2.0 11.932 31.3455 8.58767
412 1 2.0 11.9585 31.3062 12.6268
413 1 2.0 12.0577 31.2777 16.6936
414 1 2.0 12.1878 31.2344 20.729
415 1 2.0 11.9285 35.6538 0.563589
416 1 2.0 11.9262 35.2311 4.74203
417 1 2.0 11.9265 35.1935 8.71856
418 1 2.0 11.9615 35.1817 12.7166
419 1 2.0 12.0656 35.1698 16.7649
420 1 2.0 12.1963 35.1498 20.7885
421 1 2.0 11.913 39.0495 1.01562
422 1 2.0 11.9169 39.0766 4.87218
423 1 2.0 11.9217 39.0763 8.76532
424 1 2.0 11.9599 39.0755 12.7459
425 1 2.0 12.0665 39.0756 16.7856
426 1 2.0 12.1988 39.0789 20.8039
427 1 2.0 11.9897 42.5249 0.540431
428 1 2.0 11.9234 42.9121 4.71575
429 1 2.0 11.9253 42.9574 8.70465
430 1 2.0 11.9598 42.9689 12.706
431 1 2.0 12.0645 42.9823 16.7547
432 1 2.0 12.1943 43.0068 20.7772
433 1 2.0 11.9894 46.3761 0.456109
434 1 2.0 11.9416 46.6736 4.51254
435 1 2.0 11.9334 46.8011 8.56643
436 1 2.0 11.958 46.8417 12.6077
437 1 2.0 12.0528 46.8683 16.6709
438 1 2.0 12.1797 46.9187 20.7122
439 1 2.0 12.0043 50.2722 0.318448
440 1 2.0 11.9567 50.5038 4.36456
441 1 2.0 11.9419 50.6309 8.41729
442 1 2.0 11.9549 50.6953 12.4757
443 1 2.0 12.03 50.7341 16.5441
444 1 2.0 12.1442 50.798 20.5958
445 1 2.0 12.0253 54.2136 0.243378
446 1 2.0 11.9769 54.3751 4.2601
447 1 2.0 11.9519 54.4818 8.2955
448 1 2.0 11.9507 54.5489 12.3422
449 1 2.0 11.9859 54.5925 16.3848
450 1 2.0 12.0412 54.6336 20.4035
451 1 2.0 12.0527 58.1656 0.18865
452 1 2.0 11.9994 58.2787 4.18872
453 1 2.0 11.9649 58.3585 8.2033
454 1 2.0 11.9472 58.4165 12.2318
455 1 2.0 11.9453 58.4645 16.2539
456 1 2.0 11.9862 58.5867 20.2738
457 1 2.0 12.0791 62.1216 0.146824
458 1 2.0 12.0225 62.1992 4.13758
459 1 2.0 11.9797 62.2559 8.13617
460 1 2.0 11.9457 62.2981 12.1437
461 1 2.0 11.9252 62.328 16.1539
462 1 2.0 11.9763 62.3416 20.1325
463 1 2.0 12.1043 66.0775 0.114084
464 1 2.0 12.0444 66.1304 4.0986
465 1 2.0 11.9957 66.1667 8.08559
466 1 2.0 11.9512 66.1983 12.084
467 1 2.0 11.8997 66.2224 16.0793
468 1 2.0 11.8671 66.2317 20.054
469 1 2.0 12.1241 70.035 0.0895726
470 1 2.0 12.061 70.0654 4.07104
471 1 2.0 12.0094 70.0887 8.05222
472 1 2.0 11.9563 70.1095 12.0461
473 1 2.0 11.8747 70.1414 16.0356
474 1 2.0 11.7042 70.1225 20.0862
475 1 2.0 12.1362 73.992 0.0748579
476 1 2.0 12.0714 74.0051 4.05337
477 1 2.0 12.018 74.0155 8.03303
478 1 2.0 11.96 74.026 12.0237
479 1 2.0 11.8682 74.045 16.0353
480 1 2.0 11.7145 74.0519 20.0802
481 1 2.0 16.1023 77.9482 0.129765
482 1 2.0 16.004 77.9453 4.12471
483 1 2.0 15.923 77.9425 8.12921
484 1 2.0 15.8425 77.9449 12.1562
485 1 2.0 15.725 77.9548 16.2095
486 1 2.0 15.5588 77.9579 20.2718
487 1 2.0 16.095 4.16805 0.131857
488 1 2.0 15.9983 4.14937 4.12634
489 1 2.0 15.9211 4.13588 8.12924
490 1 2.0 15.8469 4.13023 12.1514
491 1 2.0 15.7488 4.1349 16.2
492 1 2.0 15.5783 4.19837 20.2724
493 1 2.0 16.0774 8.11738 0.137465
494 1 2.0 15.9859 8.08208 4.13333
495 1 2.0 15.9157 8.05614 8.13134
496 1 2.0 15.8537 8.04042 12.1424
497 1 2.0 15.7876 8.04153 16.1675
498 1 2.0 15.6467 8.15255 20.2502
499 1 2.0 16.0522 12.0696 0.149978
500 1 2.0 15.9668 12.0134 4.14353
501 1 2.0 15.9062 11.9767 8.14057
502 1 2.0 15.8612 11.9498 12.143
503 1 2.0 15.8324 11.9432 16.1311
504 1 2.0 15.8216 11.9912 20.1135
505 1 2.0 16.0237 16.0237 0.167736
506 1 2.0 15.943 15.943 4.16177
507 1 2.0 15.8903 15.8903 8.16139
508 1 2.0 15.8581 15.8581 12.1638
509 1 2.0 15.8506 15.8506 16.1291
510 1 2.0 15.8991 15.8991 20.0227
511 1 2.0 15.9923 19.9784 0.194536
512 1 2.0 15.9168 19.8623 4.19185
513 1 2.0 15.8701 19.7894 8.20152
514 1 2.0 15.8453 19.7476 12.2178
515 1 2.0 15.8542 19.7447 16.2154
516 1 2.0 15.9458 19.7798 20.2336
517 1 2.0 15.9628 23.9311 0.235647
518 1 2.0 15.8912 23.7671 4.24355
519 1 2.0 15.8506 23.6638 8.26948
520 1 2.0 15.8339 23.614 12.3037
521 1 2.0 15.8692 23.6062 16.3483
522 1 2.0 16.1094 23.5547 20.5125
523 1 2.0 15.9349 27.8687 0.299669
524 1 2.0 15.8691 27.6402 4.33157
525 1 2.0 15.8337 27.5184 8.37188
526 1 2.0 15.8268 27.4656 12.4135
527 1 2.0 15.8806 27.4462 16.4802
528 1 2.0 16.1832 27.3973 20.6869
529 1 2.0 15.9129 31.7655 0.432499
530 1 2.0 15.8484 31.4735 4.46555
531 1 2.0 15.8201 31.3477 8.50346
532 1 2.0 15.8229 31.3198 12.5253
533 1 2.0 15.8937 31.3043 16.5958
534 1 2.0 16.2116 31.2656 20.8029
535 1 2.0 15.8584 35.6244 0.606353
536 1 2.0 15.832 35.2361 4.66535
537 1 2.0 15.8088 35.1953 8.62763
538 1 2.0 15.8224 35.1877 12.6115
539 1 2.0 15.9046 35.1798 16.6693
540 1 2.0 16.2256 35.1614 20.8624
541 1 2.0 15.8061 39.1055 0.953451
542 1 2.0 15.8225 39.0815 4.79205
543 1 2.0 15.8041 39.0774 8.67136
544 1 2.0 15.8213 39.0745 12.6405
545 1 2.0 15.9075 39.0743 16.6912
546 1 2.0 16.2292 39.0761 20.8787
547 1 2.0 15.9077 42.5045 0.458044
548 1 2.0 15.8333 42.9208 4.64063
549 1 2.0 15.8093 42.9587 8.61562
550 1 2.0 15.8205 42.9611 12.6032
551 1 2.0 15.9013 42.9679 16.6621
552 1 2.0 16.2191 42.9913 20.8534
553 1 2.0 15.901 46.3763 0.407921
554 1 2.0 15.8522 46.6801 4.45161
555 1 2.0 15.821 46.8026 8.49033
556 1 2.0 15.8217 46.8312 12.5132
557 1 2.0 15.8922 46.8425 16.58
558 1 2.0 16.2111 46.886 20.7877
559 1 2.0 15.9397 50.2895 0.291439
560 1 2.0 15.8722 50.5187 4.32505
561 1 2.0 15.8367 50.6369 8.36279
562 1 2.0 15.828 50.6878 12.401
563 1 2.0 15.8781 50.6966 16.4559
564 1 2.0 16.1627 50.7488 20.6525
565 1 2.0 15.9721 54.2394 0.233029
566 1 2.0 15.8967 54.3957 4.24101
567 1 2.0 15.8532 54.4924 8.26608
568 1 2.0 15.8353 54.5448 12.3019
569 1 2.0 15.8577 54.5619 16.3375
570 1 2.0 16.0251 54.5546 20.4642
571 1 2.0 16.0027 58.1942 0.194573
572 1 2.0 15.923 58.3012 4.19201
573 1 2.0 15.8717 58.373 8.20328
574 1 2.0 15.8414 58.42 12.2307
575 1 2.0 15.8422 58.4421 16.252
576 1 2.0 15.93 58.3796 20.2365
577 1 2.0 16.0353 62.1494 0.169229
578 1 2.0 15.9502 62.2233 4.16308
579 1 2.0 15.8891 62.2744 8.16675
580 1 2.0 15.8435 62.305 12.185
581 1 2.0 15.8188 62.3142 16.2011
582 1 2.0 15.8629 62.2832 20.1738
583 1 2.0 16.0636 66.1011 0.151086
584 1 2.0 15.9737 66.1506 4.14498
585 1 2.0 15.9055 66.1826 8.14627
586 1 2.0 15.8462 66.2033 12.1649
587 1 2.0 15.7872 66.2152 16.1695
588 1 2.0 15.6522 66.2049 20.1947
589 1 2.0 16.086 70.0518 0.139046
590 1 2.0 15.9915 70.0804 4.13379
591 1 2.0 15.9162 70.101 8.13669
592 1 2.0 15.8432 70.111 12.1581
593 1 2.0 15.7585 70.1307 16.1692
594 1 2.0 15.6332 70.1286 20.1872
595 1 2.0 16.0996 74.0001 0.13207
596 1 2.0 16.002 74.0132 4.12671
597 1 2.0 15.9215 74.0216 8.13201
598 1 2.0 15.841 74.0266 12.1579
599 1 2.0 15.7313 74.0338 16.1938
600 1 2.0 15.5805 74.0188 20.231
601 1 2.0 20.0585 77.9461 0.201668
602 1 2.0 19.9191 77.9436 4.21807
603 1 2.0 19.8076 77.9422 8.25046
604 1 2.0 19.705 77.9456 12.3049
605 1 2.0 19.5902 77.9557 16.3576
606 1 2.0 19.4519 77.9613 20.3885
607 1 2.0 20.0508 4.15475 0.199273
608 1 2.0 19.9148 4.13952 4.21386
609 1 2.0 19.8093 4.1307 8.24372
610 1 2.0 19.7135 4.13343 12.2939
611 1 2.0 19.603 4.15723 16.3551
612 1 2.0 19.4622 4.2054 20.4015
613 1 2.0 20.0328 8.09609 0.195333
614 1 2.0 19.903 8.06464 4.20657
615 1 2.0 19.8083 8.04629 8.22933
616 1 2.0 19.7292 8.04315 12.2681
617 1 2.0 19.6456 8.06773 16.3208
618 1 2.0 19.5077 8.17657 20.3937
619 1 2.0 20.0082 12.042 0.193523
620 1 2.0 19.8852 11.99 4.19672
621 1 2.0 19.8026 11.9607 8.21235
622 1 2.0 19.7428 11.9466 12.2388
623 1 2.0 19.7 11.9723 16.2716
624 1 2.0 19.5906 12.1196 20.3619
625 1 2.0 19.9784 15.9923 0.194536
626 1 2.0 19.8623 15.9168 4.19185
627 1 2.0 19.7894 15.8701 8.20152
628 1 2.0 19.7477 15.8453 12.2178
629 1 2.0 19.7447 15.8542 16.2154
630 1 2.0 19.7798 15.9458 20.2336
631 1 2.0 19.9481 19.9481 0.203473
632 1 2.0 19.8367 19.8367 4.19756
633 1 2.0 19.7695 19.7695 8.20716
634 1 2.0 19.7382 19.7382 12.2189
635 1 2.0 19.7532 19.7532 16.1961
636 1 2.0 19.8373 19.8373 20.1087
637 1 2.0 19.9181 23.9059 0.225985
638 1 2.0 19.8109 23.7463 4.22521
639 1 2.0 19.747 23.651 8.24254
640 1 2.0 19.7186 23.6114 12.2565
641 1 2.0 19.7389 23.628 16.2451
642 1 2.0 19.8165 23.6584 20.2245
643 1 2.0 19.8938 27.8556 0.272757
644 1 2.0 19.7854 27.6268 4.2903
645 1 2.0 19.7252 27.5108 8.31562
646 1 2.0 19.7006 27.4706 12.3284
647 1 2.0 19.7418 27.4771 16.326
648 1 2.0 19.9109 27.4777 20.3682
649 1 2.0 19.878 31.7642 0.3825
650 1 2.0 19.7605 31.4654 4.40577
651 1 2.0 19.7062 31.3449 8.4257
652 1 2.0 19.6885 31.3257 12.4176
653 1 2.0 19.743 31.3304 16.4167
654 1 2.0 19.9545 31.3204 20.4827
655 1 2.0 19.8702 35.627 0.452995
656 1 2.0 19.7371 35.2328 4.58734
657 1 2.0 19.6916 35.1944 8.53839
658 1 2.0 19.6774 35.1916 12.4931
659 1 2.0 19.7435 35.1944 16.4811
660 1 2.0 19.9658 35.1902 20.549
661 1 2.0 19.7653 39.0778 0.905506
662 1 2.0 19.7305 39.0797 4.72275
663 1 2.0 19.6869 39.077 8.58193
664 1 2.0 19.6742 39.0732 12.521
665 1 2.0 19.744 39.0722 16.5034
666 1 2.0 19.9713 39.0703 20.5698
667 1 2.0 19.8221 42.4939 0.423486
668 1 2.0 19.7466 42.9244 4.57603
669 1 2.0 19.6941 42.9592 8.533
670 1 2.0 19.6782 42.956 12.4897
671 1 2.0 19.7432 42.9499 16.4801
672 1 2.0 19.9706 42.9539 20.5413
673 1 2.0 19.8414 46.4189 0.399538
674 1 2.0 19.7661 46.6913 4.40123
675 1 2.0 19.7078 46.8077 8.42248
676 1 2.0 19.6874 46.8232 12.414
677 1 2.0 19.7382 46.8123 16.4097
678 1 2.0 19.9465 46.826 20.4664
679 1 2.0 19.8879 50.3278 0.279252
680 1 2.0 19.7897 50.5367 4.29352
681 1 2.0 19.7272 50.6479 8.31907
682 1 2.0 19.6982 50.6863 12.3309
683 1 2.0 19.7329 50.6697 16.3198
684 1 2.0 19.8839 50.6574 20.3428
685 1 2.0 19.925 54.2725 0.232537
686 1 2.0 19.8171 54.4207 4.23256
687 1 2.0 19.7491 54.5103 8.25263
688 1 2.0 19.7108 54.5508 12.2715
689 1 2.0 19.7251 54.5412 16.2555
690 1 2.0 19.7986 54.4685 20.17
691 1 2.0 19.96 58.2269 0.209932
692 1 2.0 19.8447 58.3278 4.2072
693 1 2.0 19.769 58.394 8.22252
694 1 2.0 19.7209 58.4321 12.2456
695 1 2.0 19.7067 58.4331 16.2453
696 1 2.0 19.7432 58.3661 20.1681
697 1 2.0 19.9919 62.1784 0.201218
698 1 2.0 19.8707 62.2491 4.20161
699 1 2.0 19.7867 62.2956 8.21757
700 1 2.0 19.7276 62.3173 12.2476
701 1 2.0 19.6934 62.3019 16.2789
702 1 2.0 19.6404 62.1992 20.3582
703 1 2.0 20.0207 66.1277 0.19861
704 1 2.0 19.8925 66.1716 4.20603
705 1 2.0 19.7997 66.1985 8.2274
706 1 2.0 19.7252 66.206 12.2679
707 1 2.0 19.6703 66.1876 16.2992
708 1 2.0 19.5935 66.1656 20.3185
709 1 2.0 20.0426 70.0695 0.199684
710 1 2.0 19.9079 70.0954 4.21225
711 1 2.0 19.805 70.1111 8.24119
712 1 2.0 19.7167 70.1077 12.2883
713 1 2.0 19.6325 70.096 16.3254
714 1 2.0 19.5163 70.0645 20.3555
715 1 2.0 20.0564 74.0083 0.201556
716 1 2.0 19.9172 74.02 4.21709
717 1 2.0 19.8064 74.026 8.25014
718 1 2.0 19.7058 74.0251 12.3021
719 1 2.0 19.6015 74.0223 16.3451
720 1 2.0 19.472 74.0037 20.3708
721 1 2.0 24.0059 77.9436 0.288777
722 1 2.0 23.8098 77.942 4.33252
723 1 2.0 23.6702 77.9423 8.39284
724 1 2.0 23.5605 77.9469 12.4557
725 1 2.0 23.4599 77.9534 16.4944
726 1 2.0 23.3528 77.9597 20.5064
727 1 2.0 23.999 4.14318 0.28259
728 1 2.0 23.8053 4.13043 4.32407
729 1 2.0 23.6718 4.12862 8.3808
730 1 2.0 23.5684 4.13929 12.4443
731 1 2.0 23.468 4.16712 16.4919
732 1 2.0 23.3618 4.21009 20.5139
733 1 2.0 23.9823 8.07479 0.268733
734 1 2.0 23.7968 8.04948 4.30325
735 1 2.0 23.6736 8.04028 8.35162
736 1 2.0 23.5847 8.05024 12.4131
737 1 2.0 23.4991 8.09495 16.4743
738 1 2.0 23.3946 8.1822 20.518
739 1 2.0 23.9573 12.0133 0.25194
740 1 2.0 23.784 11.9691 4.27293
741 1 2.0 23.6722 11.9475 8.31084
742 1 2.0 23.6033 11.9476 12.3627
743 1 2.0 23.5559 12.0003 16.4265
744 1 2.0 23.4556 12.1444 20.5059
745 1 2.0 23.9311 15.9628 0.235647
746 1 2.0 23.7671 15.8912 4.24355
747 1 2.0 23.6638 15.8506 8.26948
748 1 2.0 23.614 15.8339 12.3037
749 1 2.0 23.6062 15.8692 16.3483
750 1 2.0 23.5547 16.1094 20.5125
751 1 2.0 23.9059 19.9181 0.225986
752 1 2.0 23.7463 19.8109 4.22521
753 1 2.0 23.651 19.747 8.24254
754 1 2.0 23.6114 19.7186 12.2565
755 1 2.0 23.628 19.7389 16.2451
756 1 2.0 23.6584 19.8165 20.2245
757 1 2.0 23.8792 23.8792 0.23163
758 1 2.0 23.7224 23.7224 4.22954
759 1 2.0 23.6323 23.6323 8.24525
760 1 2.0 23.5951 23.5951 12.2417
761 1 2.0 23.6236 23.6236 16.1935
762 1 2.0 23.7646 23.7646 20.0607
763 1 2.0 23.848 27.8418 0.261086
764 1 2.0 23.6973 27.6079 4.27433
765 1 2.0 23.6108 27.4965 8.28832
766 1 2.0 23.5745 27.4644 12.2706
767 1 2.0 23.6082 27.4933 16.2064
768 1 2.0 23.7763 27.5757 20.1254
769 1 2.0 23.8175 31.7788 0.340496
770 1 2.0 23.6742 31.4542 4.37104
771 1 2.0 23.5918 31.3384 8.37392
772 1 2.0 23.5597 31.3244 12.3276
773 1 2.0 23.6051 31.3501 16.254
774 1 2.0 23.7979 31.3819 20.1938
775 1 2.0 23.8136 35.6257 0.409005
776 1 2.0 23.6516 35.2239 4.54079
777 1 2.0 23.5749 35.1901 8.47258
778 1 2.0 23.5484 35.1937 12.3854
779 1 2.0 23.6008 35.206 16.3038
780 1 2.0 23.8143 35.2157 20.2369
781 1 2.0 23.6987 39.0167 0.858127
782 1 2.0 23.6381 39.0744 4.67327
783 1 2.0 23.5671 39.0749 8.51618
784 1 2.0 23.5442 39.0717 12.4109
785 1 2.0 23.5993 39.07 16.3248
786 1 2.0 23.8195 39.0672 20.2553
787 1 2.0 23.7881 42.481 0.435968
788 1 2.0 23.6518 42.9254 4.53661
789 1 2.0 23.573 42.9602 8.47665
790 1 2.0 23.5479 42.9529 12.3895
791 1 2.0 23.6018 42.9342 16.3077
792 1 2.0 23.8126 42.9188 20.2399
793 1 2.0 23.8179 46.4349 0.380454
794 1 2.0 23.6732 46.7025 4.37267
795 1 2.0 23.5879 46.8162 8.38263
796 1 2.0 23.5591 46.8246 12.3378
797 1 2.0 23.6032 46.7917 16.2606
798 1 2.0 23.7936 46.7478 20.1935
799 1 2.0 23.8553 50.3595 0.278033
800 1 2.0 23.7 50.5583 4.28462
801 1 2.0 23.6085 50.6632 8.3027
802 1 2.0 23.5722 50.6926 12.2867
803 1 2.0 23.6038 50.658 16.2156
804 1 2.0 23.777 50.5677 20.1211
805 1 2.0 23.8861 54.3066 0.245764
806 1 2.0 23.7263 54.4477 4.246
807 1 2.0 23.6299 54.5328 8.26606
808 1 2.0 23.5876 54.5669 12.2672
809 1 2.0 23.6077 54.542 16.2148
810 1 2.0 23.7306 54.4287 20.0929
811 1 2.0 23.9151 58.2585 0.239325
812 1 2.0 23.7508 58.3554 4.24269
813 1 2.0 23.6487 58.4172 8.2677
814 1 2.0 23.5986 58.4461 12.2889
815 1 2.0 23.598 58.4196 16.279
816 1 2.0 23.6179 58.2844 20.3033
817 1 2.0 23.9446 62.2105 0.246769
818 1 2.0 23.7713 62.2732 4.26098
819 1 2.0 23.6612 62.3132 8.29482
820 1 2.0 23.5997 62.3253 12.334
821 1 2.0 23.5665 62.2841 16.3889
822 1 2.0 23.5214 62.0767 20.5342
823 1 2.0 23.9724 66.153 0.261748
824 1 2.0 23.7876 66.1912 4.28847
825 1 2.0 23.668 66.2111 8.33344
826 1 2.0 23.5898 66.2046 12.3916
827 1 2.0 23.5331 66.1431 16.4601
828 1 2.0 23.452 66.0527 20.5158
829 1 2.0 23.9943 70.0881 0.275878
830 1 2.0 23.8005 70.1092 4.31317
831 1 2.0 23.6708 70.1162 8.36852
832 1 2.0 23.5769 70.1022 12.4321
833 1 2.0 23.4992 70.07 16.4771
834 1 2.0 23.3995 70.0223 20.5021
835 1 2.0 24.0049 74.0159 0.286432
836 1 2.0 23.8088 74.0259 4.3288
837 1 2.0 23.6705 74.0279 8.38873
838 1 2.0 23.5644 74.0227 12.4511
839 1 2.0 23.4705 74.0088 16.4887
840 1 2.0 23.3649 73.9874 20.5006
841 1 2.0 27.9341 77.9427 0.396521
842 1 2.0 27.6636 77.9416 4.48078
843 1 2.0 27.5118 77.9429 8.55356
844 1 2.0 27.4162 77.9473 12.6038
845 1 2.0 27.3443 77.9527 16.6195
846 1 2.0 27.2644 77.9591 20.6144
847 1 2.0 27.9259 4.13545 0.392601
848 1 2.0 27.6599 4.12348 4.46859
849 1 2.0 27.5127 4.13049 8.53755
850 1 2.0 27.4203 4.14651 12.5931
851 1 2.0 27.3508 4.17203 16.6167
852 1 2.0 27.2724 4.20841 20.6168
853 1 2.0 27.9104 8.05207 0.370778
854 1 2.0 27.6531 8.03748 4.43629
855 1 2.0 27.5158 8.03892 8.49771
856 1 2.0 27.4337 8.06103 12.5612
857 1 2.0 27.3727 8.11255 16.6068
858 1 2.0 27.2968 8.18826 20.6247
859 1 2.0 27.8845 11.9831 0.337424
860 1 2.0 27.648 11.9532 4.38582
861 1 2.0 27.5192 11.9388 8.43825
862 1 2.0 27.4523 11.9537 12.4999
863 1 2.0 27.4088 12.0351 16.5764
864 1 2.0 27.3366 12.1693 20.6337
865 1 2.0 27.8687 15.9349 0.299668
866 1 2.0 27.6402 15.8691 4.33157
867 1 2.0 27.5184 15.8337 8.37188
868 1 2.0 27.4656 15.8268 12.4135
869 1 2.0 27.4462 15.8806 16.4802
870 1 2.0 27.3973 16.1832 20.6869
871 1 2.0 27.8556 19.8938 0.272756
872 1 2.0 27.6268 19.7854 4.2903
873 1 2.0 27.5108 19.7252 8.31562
874 1 2.0 27.4706 19.7006 12.3284
875 1 2.0 27.4771 19.7418 16.326
876 1 2.0 27.4777 19.9109 20.3682
877 1 2.0 27.8418 23.848 0.261086
878 1 2.0 27.6079 23.6973 4.27433