ITEM: TIMESTEP
0
ITEM: NUMBER OF ATOMS
22830
ITEM: BOX BOUNDS pp pp pp
5.8570000000000000e-01 7.8310000000000002e+01
5.8570000000000000e-01 7.8310000000000002e+01
-2.5448000000000000e+01 2.5448000000000000e+01
ITEM: ATOMS id type x y z 
12001 4 2.27709 2.27709 -24.5671 
14288 5 4.32027 4.32027 -22.3545 
16448 3 4.33488 2.2875 -22.3675 
18619 3 4.27593 4.27593 -24.6099 
20672 3 2.2875 4.33488 -22.3675 
12115 4 6.42903 2.29982 -24.5028 
14402 5 8.43422 4.31451 -22.2855 
16562 3 8.43241 2.28844 -22.2677 
18733 3 8.53685 4.28266 -24.4577 
20786 3 6.36544 4.32308 -22.3677 
12229 4 10.617 2.2896 -24.3101 
14516 5 12.5513 4.30513 -22.1277 
16676 3 12.5479 2.2728 -22.1036 
18847 3 12.7367 4.24642 -24.2214 
20900 3 10.48 4.30932 -22.1909 
12343 4 14.7386 2.25529 -24.1252 
14630 5 16.6677 4.28967 -21.9412 
16790 3 16.6669 2.26195 -21.9479 
18961 3 16.8242 4.25522 -24.0581 
21014 3 14.6109 4.3041 -21.9897 
12457 4 18.8374 2.24813 -23.9625 
14744 5 20.7796 4.27777 -21.7747 
16904 3 20.7768 2.25788 -21.796 
19075 3 20.9019 4.2598 -23.9073 
21128 3 18.7232 4.29124 -21.8229 
12571 4 22.9175 2.24255 -23.8203 
14858 5 24.8761 4.27168 -21.6295 
17018 3 24.8754 2.25517 -21.6581 
19189 3 24.9651 4.25927 -23.7775 
21242 3 22.8286 4.28092 -21.6689 
12685 4 26.9832 2.24252 -23.6988 
14972 5 28.958 4.26884 -21.506 
17132 3 28.9573 2.25232 -21.5366 
19303 3 29.0179 4.26239 -23.668 
21356 3 26.9192 4.27437 -21.5389 
12799 4 31.0328 2.24333 -23.6028 
12913 4 35.0662 2.24289 -23.5431 
15086 5 33.0236 4.26822 -21.4162 
17246 3 33.0232 2.25277 -21.4475 
19417 3 33.0571 4.26596 -23.5897 
21469 3 31.0741 4.22318 -25.4443 
21470 3 30.9938 4.2713 -21.4349 
21583 3 35.0872 4.22285 -25.3927 
21584 3 35.0517 4.27104 -21.37 
13027 4 39.0954 2.24286 -23.5267 
15200 5 37.0754 4.2684 -21.3729 
17360 3 37.0763 2.25179 -21.4032 
19531 3 37.0844 4.26571 -23.5509 
21697 3 39.094 4.22218 -25.3765 
21698 3 39.0989 4.27033 -21.3509 
12007 4 2.29982 6.42903 -24.5028 
14294 5 4.31451 8.43422 -22.2855 
16454 3 4.32308 6.36544 -22.3677 
18625 3 4.28266 8.53685 -24.4577 
20678 3 2.28844 8.43241 -22.2677 
12121 4 6.40534 6.40534 -24.4658 
14408 5 8.37903 8.37903 -22.1962 
16568 3 8.40263 6.3661 -22.2974 
18739 3 8.28569 8.28569 -24.7085 
20792 3 6.3661 8.40263 -22.2974 
12235 4 10.5184 6.38628 -24.4182 
14522 5 12.4964 8.36342 -22.1649 
16682 3 12.5065 6.34135 -22.1537 
18853 3 12.5862 8.31906 -24.3241 
20906 3 10.4043 8.38087 -22.2708 
12349 4 14.6877 6.31732 -24.1783 
14636 5 16.6218 8.34873 -21.9871 
16796 3 16.6311 6.31603 -21.9643 
18967 3 16.7841 8.2797 -24.0814 
21020 3 14.5457 8.36375 -22.0541 
12463 4 18.8109 6.27728 -23.9775 
14750 5 20.7469 8.3267 -21.7943 
16910 3 20.7534 6.30019 -21.8037 
19081 3 20.8838 8.28726 -23.9109 
21134 3 18.6829 8.34759 -21.8452 
12577 4 22.9037 6.26357 -23.8227 
14864 5 24.8577 8.31271 -21.6302 
17024 3 24.8602 6.29143 -21.6603 
19195 3 24.9577 8.29024 -23.7751 
21248 3 22.8062 8.33027 -21.6757 
12691 4 26.9759 6.25888 -23.6937 
14978 5 28.9485 8.30651 -21.4986 
17138 3 28.9479 6.2875 -21.5328 
19309 3 29.0143 8.29556 -23.6585 
21362 3 26.9047 8.31892 -21.534 
12805 4 31.0301 6.25993 -23.5922 
12919 4 35.066 6.26172 -23.5314 
15092 5 33.0183 8.30624 -21.4029 
17252 3 33.0185 6.28617 -21.439 
19423 3 33.0558 8.30001 -23.5759 
21475 3 31.075 8.21829 -25.4346 
21476 3 30.9877 8.31228 -21.4246 
21589 3 35.0863 8.22278 -25.3812 
21590 3 35.0484 8.31192 -21.3556 
13033 4 39.0947 6.26345 -23.5147 
15206 5 37.0743 8.30485 -21.3567 
17366 3 37.075 6.28692 -21.3917 
19537 3 37.0844 8.30226 -23.5368 
21703 3 39.0937 8.22174 -25.3662 
21704 3 39.099 8.31064 -21.3343 
12013 4 2.2896 10.617 -24.3101 
14300 5 4.30513 12.5513 -22.1277 
16460 3 4.30932 10.48 -22.1909 
18631 3 4.24642 12.7367 -24.2214 
20684 3 2.2728 12.5479 -22.1036 
12127 4 6.38627 10.5184 -24.4182 
14414 5 8.36342 12.4964 -22.1649 
16574 3 8.38087 10.4043 -22.2708 
18745 3 8.31906 12.5862 -24.3241 
20798 3 6.34135 12.5065 -22.1537 
12241 4 10.4614 10.4614 -24.3413 
14528 5 12.4331 12.4331 -22.1019 
16688 3 12.4573 10.4113 -22.1754 
18859 3 12.3258 12.3258 -24.5333 
20912 3 10.4113 12.4573 -22.1754 
12355 4 14.5895 10.419 -24.2786 
14642 5 16.5659 12.4126 -22.0357 
16802 3 16.5751 10.388 -22.0155 
18973 3 16.6512 12.3469 -24.1885 
21026 3 14.4634 12.4332 -22.1583 
12469 4 18.7566 10.3445 -24.0356 
14756 5 20.6946 12.3912 -21.8418 
16916 3 20.7112 10.3549 -21.8174 
19087 3 20.8538 12.3119 -23.9385 
21140 3 18.6178 12.4075 -21.9149 
12583 4 22.8782 10.2966 -23.8292 
14870 5 24.8245 12.3702 -21.6451 
17030 3 24.834 10.3381 -21.6613 
19201 3 24.9377 12.3246 -23.773 
21254 3 22.7612 12.3929 -21.6946 
12697 4 26.9662 10.2819 -23.6799 
14984 5 28.93 12.3605 -21.49 
17144 3 28.9327 10.3308 -21.5257 
19315 3 29.0061 12.34 -23.6423 
21368 3 26.8797 12.3775 -21.532 
12811 4 31.024 10.2864 -23.5721 
12925 4 35.0638 10.2883 -23.508 
15098 5 33.0092 12.3581 -21.3861 
17258 3 33.0096 10.331 -21.4242 
19429 3 33.0516 12.3447 -23.5585 
21481 3 31.0753 12.2241 -25.4155 
21482 3 30.9727 12.3665 -21.4058 
21595 3 35.0834 12.2317 -25.363 
21596 3 35.0428 12.3613 -21.3361 
13039 4 39.0937 10.2896 -23.4912 
15212 5 37.0699 12.357 -21.3372 
17372 3 37.0716 10.3295 -21.3737 
19543 3 37.0821 12.349 -23.5144 
21709 3 39.0909 12.2338 -25.3492 
21710 3 39.0972 12.3598 -21.3134 
12019 4 2.25529 14.7386 -24.1252 
14306 5 4.28967 16.6677 -21.9412 
16466 3 4.3041 14.6109 -21.9897 
18637 3 4.25522 16.8242 -24.0581 
20690 3 2.26195 16.6669 -21.9479 
12133 4 6.31732 14.6877 -24.1783 
14420 5 8.34873 16.6218 -21.9871 
16580 3 8.36375 14.5457 -22.0541 
18751 3 8.2797 16.7841 -24.0814 
20804 3 6.31603 16.6311 -21.9643 
12247 4 10.419 14.5895 -24.2786 
14534 5 12.4126 16.5659 -22.0357 
16694 3 12.4332 14.4634 -22.1583 
18865 3 12.3469 16.6512 -24.1885 
20918 3 10.388 16.5751 -22.0155 
12361 4 14.5025 14.5025 -24.2121 
14648 5 16.4965 16.4965 -21.9726 
16808 3 16.5248 14.4641 -22.0433 
18979 3 16.3458 16.3458 -24.4102 
21032 3 14.4641 16.5248 -22.0433 
12475 4 18.6435 14.4592 -24.1521 
14762 5 20.6303 16.4737 -21.8922 
16922 3 20.6486 14.4351 -21.8679 
19093 3 20.7132 16.3744 -24.051 
21146 3 18.5294 16.4871 -22.0226 
12589 4 22.8336 14.3649 -23.8722 
14876 5 24.7736 16.4532 -21.683 
17036 3 24.784 14.403 -21.6687 
19207 3 24.9246 16.3715 -23.7754 
21260 3 22.6821 16.4655 -21.7578 
12703 4 26.9494 14.3409 -23.6763 
14990 5 28.9037 16.4402 -21.4849 
17150 3 28.9051 14.3936 -21.5136 
19321 3 29.0014 16.4021 -23.6251 
21374 3 26.8422 16.4482 -21.527 
12817 4 31.0138 14.346 -23.5487 
12931 4 35.0606 14.3499 -23.4745 
15104 5 32.9975 16.4307 -21.3573 
17264 3 32.9977 14.3863 -21.4053 
19435 3 33.0548 16.4174 -23.5249 
21487 3 31.0784 16.2688 -25.3982 
21488 3 30.9541 16.4284 -21.3803 
21601 3 35.0879 16.2731 -25.3452 
21602 3 35.0348 16.4151 -21.2909 
13045 4 39.0896 14.3508 -23.4538 
15218 5 37.0667 16.4289 -21.3004 
17378 3 37.0681 14.3866 -21.3513 
19549 3 37.0811 16.4223 -23.478 
21715 3 39.0868 16.2756 -25.331 
21716 3 39.0978 16.4131 -21.265 
12025 4 2.24813 18.8374 -23.9625 
14312 5 4.27777 20.7796 -21.7747 
16472 3 4.29124 18.7232 -21.8229 
18643 3 4.2598 20.9019 -23.9073 
20696 3 2.25788 20.7768 -21.796 
12139 4 6.27728 18.8109 -23.9775 
14426 5 8.3267 20.7469 -21.7943 
16586 3 8.34759 18.6829 -21.8452 
18757 3 8.28726 20.8838 -23.9109 
20810 3 6.30019 20.7534 -21.8037 
12253 4 10.3445 18.7566 -24.0356 
14540 5 12.3912 20.6946 -21.8418 
16700 3 12.4075 18.6178 -21.9149 
18871 3 12.3119 20.8538 -23.9385 
20924 3 10.3549 20.7112 -21.8174 
12367 4 14.4592 18.6435 -24.1521 
14654 5 16.4737 20.6303 -21.8922 
16814 3 16.4871 18.5294 -22.0226 
18985 3 16.3744 20.7132 -24.051 
21038 3 14.4351 20.6486 -21.8679 
12481 4 18.6003 18.6003 -24.1333 
14768 5 20.5504 20.5504 -21.7021 
16928 3 20.5781 18.5346 -21.8799 
19099 3 20.4066 20.4066 -24.4012 
21152 3 18.5346 20.5781 -21.8799 
12595 4 22.7344 18.5186 -24.0582 
14882 5 24.6953 20.5068 -21.6289 
17042 3 24.7172 18.4835 -21.6445 
19213 3 24.766 20.4357 -23.7926 
21266 3 22.5731 20.5473 -21.7761 
12709 4 26.9071 18.4596 -23.7704 
14996 5 28.8591 20.4916 -21.3996 
17156 3 28.8675 18.4624 -21.4357 
19327 3 28.9621 20.4464 -23.5336 
21380 3 26.7701 20.5268 -21.5075 
12823 4 31.0065 18.4553 -23.6026 
12937 4 35.0529 18.4563 -23.5202 
15110 5 32.9756 20.4805 -21.2387 
17270 3 32.9805 18.448 -21.293 
19441 3 33.0265 20.4445 -23.3977 
21493 3 31.0512 20.5451 -25.3569 
21494 3 30.9219 20.5097 -21.2828 
21607 3 35.0761 20.5321 -25.2863 
13051 4 39.0914 18.4577 -23.4975 
17384 3 37.0641 18.4428 -21.2204 
19555 3 37.0765 20.4394 -23.3391 
21721 3 39.0952 20.5299 -25.2676 
12031 4 2.24255 22.9175 -23.8203 
14318 5 4.27168 24.8761 -21.6295 
16478 3 4.28092 22.8286 -21.6689 
18649 3 4.25927 24.9651 -23.7775 
20702 3 2.25517 24.8754 -21.6581 
12145 4 6.26357 22.9037 -23.8227 
14432 5 8.31271 24.8577 -21.6302 
16592 3 8.33027 22.8062 -21.6757 
18763 3 8.29024 24.9577 -23.7751 
20816 3 6.29143 24.8602 -21.6603 
12259 4 10.2966 22.8782 -23.8292 
14546 5 12.3702 24.8245 -21.6451 
16706 3 12.3929 22.7612 -21.6946 
18877 3 12.3246 24.9377 -23.773 
20930 3 10.3381 24.834 -21.6613 
12373 4 14.3649 22.8336 -23.8722 
14660 5 16.4532 24.7736 -21.683 
16820 3 16.4655 22.6821 -21.7578 
18991 3 16.3715 24.9246 -23.7754 
21044 3 14.403 24.784 -21.6687 
12487 4 18.5186 22.7344 -24.0582 
14774 5 20.5068 24.6953 -21.6289 
16934 3 20.5473 22.5731 -21.7761 
19105 3 20.4357 24.766 -23.7926 
21158 3 18.4835 24.7172 -21.6445 
12601 4 22.6555 22.6555 -23.8177 
14888 5 24.6426 24.6426 -21.3996 
17048 3 24.659 22.5477 -21.5366 
19219 3 24.6704 24.6704 -23.471 
21272 3 22.5477 24.659 -21.5366 
12715 4 26.8498 22.5732 -23.5574 
15001 5 28.9431 24.7738 -25.2057 
17162 3 28.8262 22.5384 -21.2944 
19333 3 28.8707 24.6551 -23.2077 
21385 3 26.8836 24.8056 -25.3247 
21386 3 26.7148 24.6304 -21.2557 
12829 4 30.9684 22.5383 -23.3634 
12943 4 35.0417 22.5196 -23.2691 
15115 5 33.0255 24.7767 -25.0417 
17275 3 33.0589 22.7131 -25.405 
19447 3 32.9895 24.6515 -23.0359 
21499 3 30.993 24.775 -25.1157 
21613 3 35.0575 24.7744 -25.0097 
13057 4 39.0972 22.5139 -23.2455 
15229 5 37.077 24.78 -24.9689 
17389 3 37.0849 22.7081 -25.3376 
19561 3 37.0688 24.649 -22.9608 
21727 3 39.1005 24.7731 -24.9813 
12037 4 2.24252 26.9832 -23.6988 
14324 5 4.26884 28.958 -21.506 
16484 3 4.27437 26.9192 -21.5389 
18655 3 4.26239 29.0179 -23.668 
20708 3 2.25232 28.9573 -21.5366 
12151 4 6.25888 26.9759 -23.6937 
14438 5 8.30651 28.9485 -21.4986 
16598 3 8.31892 26.9047 -21.534 
18769 3 8.29556 29.0143 -23.6585 
20822 3 6.2875 28.9479 -21.5328 
12265 4 10.2819 26.9662 -23.6799 
14552 5 12.3605 28.93 -21.49 
16712 3 12.3775 26.8797 -21.532 
18883 3 12.34 29.0061 -23.6423 
20936 3 10.3308 28.9327 -21.5257 
12379 4 14.3409 26.9494 -23.6763 
14666 5 16.4402 28.9037 -21.4849 
16826 3 16.4482 26.8422 -21.527 
18997 3 16.4021 29.0014 -23.6251 
21050 3 14.3936 28.9051 -21.5136 
12493 4 18.4596 26.9071 -23.7704 
14780 5 20.4916 28.8591 -21.3996 
16940 3 20.5268 26.7701 -21.5075 
19111 3 20.4464 28.9621 -23.5336 
21164 3 18.4624 28.8675 -21.4357 
12607 4 22.5732 26.8498 -23.5574 
14893 5 24.7738 28.9431 -25.2057 
17053 3 24.8056 26.8836 -25.3247 
17054 3 24.6304 26.7148 -21.2557 
19225 3 24.6551 28.8707 -23.2077 
21278 3 22.5384 28.8262 -21.2944 
12721 4 26.7772 26.7772 -23.2798 
15007 5 28.9135 28.9135 -24.9182 
17167 3 28.9332 26.8499 -25.1059 
19339 3 28.8439 28.8439 -22.9274 
21391 3 26.8499 28.9332 -25.1059 
12835 4 30.9173 26.748 -23.0415 
12949 4 35.0209 26.7425 -22.9013 
15121 5 33.0086 28.9084 -24.7376 
17281 3 33.0187 26.8498 -24.9311 
19453 3 32.9699 28.8383 -22.7381 
21505 3 30.9673 28.9136 -24.8687 
21619 3 35.0444 28.9085 -24.7425 
13063 4 39.1035 26.7412 -22.8642 
15235 5 37.0731 28.9093 -24.6534 
17395 3 37.0774 26.8495 -24.8461 
19567 3 37.0635 28.8385 -22.648 
21733 3 39.1027 28.9081 -24.7092 
12043 4 2.24333 31.0328 -23.6028 
12049 4 2.24289 35.0662 -23.5431 
14330 5 4.26822 33.0236 -21.4162 
16489 3 4.22318 31.0741 -25.4443 
16490 3 4.2713 30.9938 -21.4349 
16495 3 4.22285 35.0872 -25.3927 
16496 3 4.27104 35.0517 -21.37 
18661 3 4.26596 33.0571 -23.5897 
20714 3 2.25277 33.0232 -21.4475 
12157 4 6.25993 31.0301 -23.5922 
12163 4 6.26172 35.066 -23.5314 
14444 5 8.30624 33.0183 -21.4029 
16603 3 8.21829 31.075 -25.4346 
16604 3 8.31228 30.9877 -21.4246 
16609 3 8.22278 35.0863 -25.3812 
16610 3 8.31192 35.0484 -21.3556 
18775 3 8.3 33.0558 -23.5759 
20828 3 6.28617 33.0185 -21.439 
12271 4 10.2864 31.024 -23.5721 
12277 4 10.2883 35.0638 -23.508 
14558 5 12.3581 33.0092 -21.3861 
16717 3 12.2241 31.0753 -25.4155 
16718 3 12.3665 30.9727 -21.4058 
16723 3 12.2317 35.0834 -25.363 
16724 3 12.3613 35.0428 -21.3361 
18889 3 12.3447 33.0516 -23.5585 
20942 3 10.331 33.0096 -21.4242 
12385 4 14.346 31.0138 -23.5487 
12391 4 14.3499 35.0606 -23.4745 
14672 5 16.4307 32.9975 -21.3573 
16831 3 16.2688 31.0784 -25.3982 
16832 3 16.4284 30.9541 -21.3803 
16837 3 16.2731 35.0879 -25.3452 
16838 3 16.4151 35.0348 -21.2909 
19003 3 16.4174 33.0548 -23.5249 
21056 3 14.3863 32.9977 -21.4053 
12499 4 18.4553 31.0065 -23.6026 
12505 4 18.4563 35.0529 -23.5202 
14786 5 20.4805 32.9756 -21.2387 
16945 3 20.5451 31.0512 -25.357 
16946 3 20.5097 30.9219 -21.2828 
16951 3 20.5321 35.0761 -25.2863 
19117 3 20.4445 33.0265 -23.3977 
21170 3 18.448 32.9805 -21.293 
12613 4 22.5383 30.9684 -23.3634 
12619 4 22.5196 35.0417 -23.2691 
14899 5 24.7767 33.0255 -25.0417 
17059 3 24.775 30.993 -25.1157 
17065 3 24.7744 35.0575 -25.0097 
19231 3 24.6515 32.9895 -23.0359 
21283 3 22.7131 33.0589 -25.405 
12727 4 26.748 30.9173 -23.0415 
12733 4 26.7425 35.0209 -22.9013 
15013 5 28.9084 33.0086 -24.7376 
17173 3 28.9136 30.9673 -24.8687 
17179 3 28.9085 35.0444 -24.7425 
19345 3 28.8383 32.9699 -22.7381 
21397 3 26.8498 33.0187 -24.9311 
12841 4 30.8996 30.8996 -22.7882 
12847 4 30.8947 35.0103 -22.6404 
12955 4 35.0103 30.8947 -22.6404 
12961 4 35.0073 35.0073 -22.4921 
15127 5 33.0007 33.0007 -24.5464 
17287 3 33.006 30.9623 -24.6821 
17293 3 32.9995 35.0411 -24.5465 
19459 3 32.9626 32.9626 -22.5389 
21511 3 30.9623 33.006 -24.6821 
21625 3 35.0411 32.9995 -24.5465 
13069 4 39.1055 30.8943 -22.6004 
13075 4 39.1068 35.0082 -22.4511 
15241 5 37.0718 33.0017 -24.4588 
17401 3 37.0721 30.9611 -24.5939 
17407 3 37.0716 35.0407 -24.4549 
19573 3 37.062 32.9632 -22.4461 
21739 3 39.1044 33.0024 -24.51 
12055 4 2.24286 39.0954 -23.5267 
14336 5 4.2684 37.0754 -21.3729 
16501 3 4.22218 39.094 -25.3765 
16502 3 4.27033 39.0989 -21.3509 
18667 3 4.26571 37.0844 -23.5509 
20720 3 2.25179 37.0763 -21.4032 
12169 4 6.26345 39.0947 -23.5147 
14450 5 8.30484 37.0743 -21.3567 
16615 3 8.22174 39.0937 -25.3662 
16616 3 8.31064 39.099 -21.3343 
18781 3 8.30226 37.0844 -23.5368 
20834 3 6.28692 37.075 -21.3917 
12283 4 10.2896 39.0937 -23.4912 
14564 5 12.357 37.0699 -21.3372 
16729 3 12.2338 39.0909 -25.3492 
16730 3 12.3598 39.0972 -21.3134 
18895 3 12.349 37.0821 -23.5144 
20948 3 10.3295 37.0716 -21.3737 
12397 4 14.3508 39.0896 -23.4538 
14678 5 16.4289 37.0667 -21.3004 
16843 3 16.2756 39.0868 -25.331 
16844 3 16.4131 39.0978 -21.265 
19009 3 16.4223 37.0811 -23.478 
21062 3 14.3866 37.0681 -21.3513 
12511 4 18.4577 39.0914 -23.4975 
16957 3 20.5299 39.0952 -25.2676 
19123 3 20.4394 37.0765 -23.3391 
21176 3 18.4428 37.0641 -21.2204 
12625 4 22.5139 39.0972 -23.2455 
14905 5 24.78 37.077 -24.9689 
17071 3 24.7731 39.1005 -24.9813 
19237 3 24.649 37.0688 -22.9608 
21289 3 22.7081 37.0849 -25.3376 
12739 4 26.7412 39.1035 -22.8642 
15019 5 28.9093 37.0731 -24.6534 
17185 3 28.9081 39.1027 -24.7092 
19351 3 28.8385 37.0635 -22.648 
21403 3 26.8495 37.0774 -24.8461 
12853 4 30.8943 39.1055 -22.6004 
12967 4 35.0082 39.1068 -22.4511 
15133 5 33.0017 37.0718 -24.4588 
17299 3 33.0024 39.1044 -24.51 
19465 3 32.9632 37.062 -22.4461 
21517 3 30.9611 37.0721 -24.5939 
21631 3 35.0407 37.0716 -24.4549 
13081 4 39.107 39.107 -22.4105 
15247 5 37.0728 37.0728 -24.3683 
17413 3 37.0727 39.1053 -24.4174 
19579 3 37.0621 37.0621 -22.3518 
21745 3 39.1053 37.0727 -24.4174 
12002 4 2.26944 2.26944 -20.2086 
14289 5 4.28644 4.28644 -17.9837 
16449 3 4.29035 2.26561 -18.0055 
18620 3 4.32087 4.32087 -20.1914 
20673 3 2.26561 4.29035 -18.0055 
12116 4 6.34726 2.26828 -20.1672 
14403 5 8.34229 4.29188 -17.9338 
16563 3 8.34781 2.2703 -17.9465 
18734 3 8.36423 4.32823 -20.1238 
20787 3 6.31441 4.29144 -17.9707 
12230 4 10.4302 2.27063 -20.0602 
14517 5 12.4148 4.29162 -17.8355 
16677 3 12.4198 2.27028 -17.8335 
18848 3 12.464 4.31699 -19.981 
20901 3 10.3736 4.29332 -17.8981 
12344 4 14.5293 2.27424 -19.9036 
14631 5 16.5042 4.28756 -17.7017 
16791 3 16.5093 2.26359 -17.6881 
18962 3 16.5868 4.28486 -19.8182 
21015 3 14.4556 4.28981 -17.7709 
12458 4 18.6416 2.26858 -19.7327 
14745 5 20.6127 4.28178 -17.5467 
16905 3 20.6166 2.25912 -17.5403 
19076 3 20.7015 4.27501 -19.657 
21129 3 18.5561 4.28464 -17.621 
12572 4 22.7567 2.26181 -19.5727 
14859 5 24.7329 4.27707 -17.3903 
17019 3 24.737 2.2561 -17.3982 
19190 3 24.8132 4.27137 -19.5076 
21243 3 22.6724 4.28055 -17.463 
12686 4 26.8652 2.25721 -19.4271 
14973 5 28.8574 4.27247 -17.2407 
17133 3 28.8573 2.25307 -17.256 
19304 3 28.9163 4.26686 -19.3729 
21357 3 26.795 4.27702 -17.3064 
12800 4 30.9591 2.25495 -19.3066 
12914 4 35.0337 2.25385 -19.2313 
15087 5 32.9688 4.26863 -17.1215 
17247 3 32.9671 2.25125 -17.1353 
19418 3 33.0028 4.26603 -19.2705 
21471 3 30.9161 4.27409 -17.1713 
21585 3 35.0193 4.27167 -17.0843 
13028 4 39.0987 2.25305 -19.2098 
15201 5 37.0618 4.26837 -17.0605 
17361 3 37.0621 2.25139 -17.0712 
19532 3 37.0725 4.26834 -19.2192 
21699 3 39.1057 4.27074 -17.0558 
12008 4 2.26828 6.34726 -20.1672 
14295 5 4.29188 8.34229 -17.9338 
16455 3 4.29144 6.31441 -17.9707 
18626 3 4.32823 8.36423 -20.1238 
20679 3 2.2703 8.34781 -17.9465 
12122 4 6.31137 6.31137 -20.115 
14409 5 8.33639 8.33639 -17.8876 
16569 3 8.34354 6.31737 -17.9229 
18740 3 8.36586 8.36586 -20.1034 
20793 3 6.31737 8.34354 -17.9229 
12236 4 10.4279 6.30517 -20.0426 
14523 5 12.3986 8.34141 -17.8245 
16683 3 12.4107 6.32165 -17.8347 
18854 3 12.4068 8.37081 -20.0143 
20907 3 10.3651 8.3427 -17.8717 
12350 4 14.5102 6.32175 -19.9279 
14637 5 16.4813 8.34074 -17.7189 
16797 3 16.4963 6.31563 -17.7097 
18968 3 16.5321 8.35841 -19.8501 
21021 3 14.4318 8.34153 -17.7885 
12464 4 18.615 6.31622 -19.758 
14751 5 20.5885 8.32989 -17.5646 
16911 3 20.6003 6.30435 -17.5499 
19082 3 20.6696 8.32251 -19.673 
21135 3 18.5291 8.33499 -17.6437 
12578 4 22.737 6.30512 -19.5845 
14865 5 24.7131 8.32098 -17.3987 
17025 3 24.7215 6.29685 -17.4012 
19196 3 24.795 8.31079 -19.5114 
21249 3 22.6496 8.32853 -17.4747 
12692 4 26.852 6.29677 -19.4277 
14979 5 28.8424 8.31276 -17.2408 
17139 3 28.8453 6.29021 -17.2548 
19310 3 28.906 8.30515 -19.3685 
21363 3 26.7779 8.32224 -17.3087 
12806 4 30.9527 6.29249 -19.2996 
12920 4 35.0306 6.29099 -19.2202 
15093 5 32.9608 8.30828 -17.1127 
17253 3 32.9607 6.28654 -17.1289 
19424 3 32.9981 8.30331 -19.2595 
21477 3 30.9049 8.3152 -17.1653 
21591 3 35.0147 8.31129 -17.072 
13034 4 39.0996 6.29073 -19.1973 
15207 5 37.0599 8.30583 -17.0457 
17367 3 37.0607 6.28615 -17.0575 
19538 3 37.0707 8.30149 -19.2049 
21705 3 39.1057 8.3101 -17.0436 
12014 4 2.27063 10.4302 -20.0602 
14301 5 4.29162 12.4148 -17.8355 
16461 3 4.29332 10.3736 -17.8981 
18632 3 4.31699 12.464 -19.981 
20685 3 2.27028 12.4198 -17.8335 
12128 4 6.30517 10.4279 -20.0426 
14415 5 8.34141 12.3986 -17.8245 
16575 3 8.3427 10.3651 -17.8717 
18746 3 8.37081 12.4068 -20.0143 
20799 3 6.32165 12.4107 -17.8347 
12242 4 10.3909 10.3909 -19.9926 
14529 5 12.3931 12.3931 -17.7792 
16689 3 12.3963 10.3696 -17.8237 
18860 3 12.4219 12.4219 -19.9951 
20913 3 10.3696 12.3963 -17.8237 
12356 4 14.486 10.3674 -19.9314 
14643 5 16.4562 12.3912 -17.7082 
16803 3 16.4737 10.3697 -17.7236 
18974 3 16.4679 12.4261 -19.8914 
21027 3 14.4189 12.3917 -17.7622 
12470 4 18.5847 10.3708 -19.7926 
14757 5 20.5563 12.3828 -17.5769 
16917 3 20.5744 10.3583 -17.5705 
19088 3 20.6063 12.4017 -19.7073 
21141 3 18.4954 12.3857 -17.6581 
12584 4 22.7037 10.3635 -19.6112 
14871 5 24.682 12.372 -17.41 
17031 3 24.697 10.3452 -17.4072 
19202 3 24.7602 12.3657 -19.5211 
21255 3 22.6121 12.3771 -17.493 
12698 4 26.8286 10.3508 -19.4323 
14985 5 28.8201 12.3607 -17.2362 
17145 3 28.8266 10.334 -17.2501 
19316 3 28.8841 12.3521 -19.3609 
21369 3 26.7501 12.3679 -17.3075 
12812 4 30.9393 10.3423 -19.2907 
12926 4 35.0262 10.3395 -19.2045 
15099 5 32.9464 12.3538 -17.0982 
17259 3 32.9496 10.3285 -17.1159 
19430 3 32.9865 12.3502 -19.2422 
21483 3 30.8863 12.3591 -17.1523 
21597 3 35.0041 12.3537 -17.0516 
13040 4 39.0973 10.3394 -19.1788 
15213 5 37.0529 12.3505 -17.0235 
17373 3 37.0564 10.3262 -17.0391 
19544 3 37.0669 12.3519 -19.1816 
21711 3 39.1045 12.352 -17.0155 
12020 4 2.27424 14.5293 -19.9036 
14307 5 4.28756 16.5042 -17.7017 
16467 3 4.28981 14.4556 -17.7709 
18638 3 4.28486 16.5868 -19.8182 
20691 3 2.26359 16.5093 -17.6881 
12134 4 6.32175 14.5102 -19.9279 
14421 5 8.34074 16.4813 -17.7189 
16581 3 8.34153 14.4318 -17.7885 
18752 3 8.35841 16.5321 -19.8501 
20805 3 6.31563 16.4963 -17.7097 
12248 4 10.3674 14.486 -19.9314 
14535 5 12.3912 16.4562 -17.7082 
16695 3 12.3917 14.4189 -17.7622 
18866 3 12.4261 16.4679 -19.8914 
20919 3 10.3697 16.4737 -17.7236 
12362 4 14.4454 14.4454 -19.8856 
14649 5 16.4422 16.4422 -17.6444 
16809 3 16.4507 14.4182 -17.6982 
18980 3 16.4842 16.4842 -19.862 
21033 3 14.4182 16.4507 -17.6982 
12476 4 18.5579 14.4187 -19.7982 
14763 5 20.5175 16.4333 -17.5459 
16923 3 20.5385 14.4109 -17.5727 
19094 3 20.5327 16.4802 -19.7267 
21147 3 18.4717 16.4379 -17.6134 
12590 4 22.6664 14.4257 -19.6419 
14877 5 24.6404 16.4163 -17.3863 
17037 3 24.6606 14.395 -17.4069 
19208 3 24.6897 16.4377 -19.5181 
21261 3 22.5674 16.4251 -17.4815 
12704 4 26.7929 14.422 -19.4508 
14991 5 28.7852 16.4045 -17.2061 
17151 3 28.7983 14.3806 -17.2284 
19322 3 28.8515 16.4082 -19.3261 
21375 3 26.7041 16.414 -17.2938 
12818 4 30.9178 14.4089 -19.2843 
12932 4 35.0161 14.4018 -19.1837 
15105 5 32.9273 16.3943 -17.0487 
17265 3 32.931 14.3707 -17.0763 
19436 3 32.9669 16.3945 -19.1836 
21489 3 30.8591 16.4078 -17.1107 
21603 3 34.9899 16.3994 -16.9932 
13046 4 39.0967 14.4002 -19.1554 
15219 5 37.0466 16.3906 -16.9676 
17379 3 37.05 14.3663 -16.992 
19550 3 37.0602 16.3889 -19.1103 
12026 4 2.26858 18.6416 -19.7327 
14313 5 4.28178 20.6127 -17.5467 
16473 3 4.28464 18.5561 -17.621 
18644 3 4.27501 20.7015 -19.657 
20697 3 2.25912 20.6166 -17.5403 
12140 4 6.31622 18.615 -19.758 
14427 5 8.32989 20.5885 -17.5646 
16587 3 8.33499 18.5291 -17.6437 
18758 3 8.32251 20.6696 -19.673 
20811 3 6.30435 20.6003 -17.5499 
12254 4 10.3708 18.5847 -19.7926 
14541 5 12.3828 20.5563 -17.5769 
16701 3 12.3857 18.4954 -17.6581 
18872 3 12.4017 20.6063 -19.7073 
20925 3 10.3583 20.5744 -17.5705 
12368 4 14.4187 18.5579 -19.7982 
14655 5 16.4333 20.5175 -17.5459 
16815 3 16.4379 18.4717 -17.6134 
18986 3 16.4802 20.5327 -19.7267 
21039 3 14.4109 20.5385 -17.5727 
12482 4 18.4863 18.4863 -19.7152 
14769 5 20.4926 20.4926 -17.4497 
16929 3 20.5072 18.459 -17.5112 
19100 3 20.5201 20.5201 -19.6447 
21153 3 18.459 20.5072 -17.5112 
12596 4 22.6373 18.4455 -19.5926 
14883 5 24.5931 20.4696 -17.3136 
17043 3 24.6154 18.4418 -17.3475 
19214 3 24.6091 20.4804 -19.4699 
21267 3 22.5322 20.486 -17.3945 
12710 4 26.7496 18.4572 -19.4225 
14997 5 28.7428 20.4535 -17.1278 
17157 3 28.76 18.4249 -17.1605 
19328 3 28.789 20.4597 -19.2477 
21381 3 26.6582 20.4702 -17.2335 
12824 4 30.8894 18.4461 -19.2291 
12938 4 35.0056 18.4375 -19.1112 
17271 3 32.911 18.4152 -16.9938 
19442 3 32.9487 20.4475 -19.0727 
21495 3 30.8247 20.4608 -17.0319 
21608 3 35.0222 20.5018 -21.1807 
13052 4 39.0991 18.4357 -19.0778 
15224 5 37.0618 20.474 -21.1721 
19556 3 37.0585 20.4421 -18.9895 
21722 3 39.1016 20.4991 -21.1519 
12032 4 2.26181 22.7567 -19.5727 
14319 5 4.27707 24.7329 -17.3903 
16479 3 4.28055 22.6724 -17.463 
18650 3 4.27137 24.8132 -19.5076 
20703 3 2.2561 24.737 -17.3982 
12146 4 6.30512 22.737 -19.5845 
14433 5 8.32098 24.7131 -17.3987 
16593 3 8.32853 22.6496 -17.4747 
18764 3 8.31079 24.795 -19.5114 
20817 3 6.29685 24.7215 -17.4012 
12260 4 10.3635 22.7037 -19.6112 
14547 5 12.372 24.682 -17.41 
16707 3 12.3771 22.6121 -17.493 
18878 3 12.3657 24.7602 -19.5211 
20931 3 10.3452 24.697 -17.4072 
12374 4 14.4257 22.6664 -19.6419 
14661 5 16.4163 24.6404 -17.3863 
16821 3 16.4251 22.5674 -17.4815 
18992 3 16.4377 24.6897 -19.5181 
21045 3 14.395 24.6605 -17.4069 
12488 4 18.4455 22.6373 -19.5926 
14775 5 20.4696 24.5931 -17.3136 
16935 3 20.486 22.5322 -17.3945 
19106 3 20.4804 24.6091 -19.4699 
21159 3 18.4418 24.6154 -17.3475 
12602 4 22.5783 22.5783 -19.4682 
14889 5 24.5608 24.5608 -17.1645 
17049 3 24.5824 22.5041 -17.2494 
19220 3 24.5685 24.5685 -19.2905 
21273 3 22.5041 24.5824 -17.2494 
12716 4 26.6964 22.5152 -19.3029 
15002 5 28.811 24.6168 -21.1462 
15003 5 28.7093 24.5347 -16.9694 
17163 3 28.7257 22.4837 -17.0461 
19334 3 28.7461 24.5494 -19.0562 
21387 3 26.6231 24.5635 -17.0649 
12830 4 30.8573 22.5034 -19.0918 
12944 4 34.9919 22.496 -18.9641 
15116 5 32.9478 24.6025 -20.9711 
17276 3 32.9572 22.5256 -21.1298 
19448 3 32.914 24.5345 -18.873 
21500 3 30.8789 24.6219 -21.0192 
21614 3 35.0057 24.6208 -20.8879 
13058 4 39.1025 22.4937 -18.927 
15230 5 37.0558 24.5957 -20.8914 
17390 3 37.0577 22.5205 -21.051 
19562 3 37.0507 24.5267 -18.779 
21728 3 39.1054 24.6179 -20.8514 
12038 4 2.25721 26.8652 -19.4271 
14325 5 4.27247 28.8574 -17.2407 
16485 3 4.27702 26.795 -17.3064 
18656 3 4.26686 28.9163 -19.3729 
20709 3 2.25307 28.8573 -17.256 
12152 4 6.29677 26.852 -19.4277 
14439 5 8.31276 28.8424 -17.2408 
16599 3 8.32224 26.7779 -17.3087 
18770 3 8.30515 28.906 -19.3685 
20823 3 6.29021 28.8453 -17.2548 
12266 4 10.3508 26.8286 -19.4323 
14553 5 12.3607 28.8201 -17.2362 
16713 3 12.3679 26.7501 -17.3075 
18884 3 12.3521 28.8841 -19.3609 
20937 3 10.334 28.8266 -17.2501 
12380 4 14.422 26.7929 -19.4508 
14667 5 16.4045 28.7852 -17.2061 
16827 3 16.414 26.7041 -17.2938 
18998 3 16.4082 28.8515 -19.3261 
21051 3 14.3806 28.7983 -17.2284 
12494 4 18.4572 26.7496 -19.4225 
14781 5 20.4535 28.7428 -17.1278 
16941 3 20.4702 26.6582 -17.2335 
19112 3 20.4597 28.789 -19.2477 
21165 3 18.4249 28.76 -17.1605 
12608 4 22.5152 26.6964 -19.3029 
14894 5 24.6168 28.811 -21.1462 
14895 5 24.5347 28.7093 -16.9694 
17055 3 24.5635 26.6231 -17.0649 
19226 3 24.5494 28.7461 -19.0562 
21279 3 22.4837 28.7257 -17.0461 
12722 4 26.6568 26.6568 -19.0801 
12842 4 30.8042 30.8042 -18.6252 
15008 5 28.7799 28.7799 -20.8822 
17168 3 28.7881 26.6926 -21.0079 
19340 3 28.7224 28.7224 -18.8164 
21392 3 26.6926 28.7881 -21.0079 
12836 4 30.8253 26.6338 -18.8589 
12950 4 34.9768 26.6235 -18.7199 
12956 4 34.9644 30.796 -18.4741 
15122 5 32.9251 28.7673 -20.6908 
17282 3 32.9313 26.685 -20.8274 
19454 3 32.896 28.7111 -18.6219 
21506 3 30.8541 28.7715 -20.7661 
21620 3 34.9924 28.7684 -20.6211 
13064 4 39.1061 26.6207 -18.6804 
13070 4 39.1085 30.7942 -18.4316 
15236 5 37.0508 28.7658 -20.5976 
17396 3 37.0534 26.6837 -20.7373 
19568 3 37.0453 28.7078 -18.5208 
21734 3 39.11 28.7672 -20.5804 
12044 4 2.25495 30.9591 -19.3066 
12050 4 2.25385 35.0337 -19.2313 
14331 5 4.26863 32.9688 -17.1215 
16491 3 4.27409 30.9161 -17.1713 
16497 3 4.27167 35.0193 -17.0843 
18662 3 4.26603 33.0028 -19.2705 
20715 3 2.25125 32.9671 -17.1353 
12158 4 6.29249 30.9527 -19.2996 
12164 4 6.29099 35.0306 -19.2202 
14445 5 8.30828 32.9608 -17.1127 
16605 3 8.3152 30.9049 -17.1653 
16611 3 8.31129 35.0147 -17.072 
18776 3 8.30331 32.9981 -19.2595 
20829 3 6.28654 32.9607 -17.1289 
12272 4 10.3423 30.9393 -19.2907 
12278 4 10.3395 35.0262 -19.2045 
14559 5 12.3538 32.9464 -17.0982 
16719 3 12.3591 30.8863 -17.1523 
16725 3 12.3537 35.0041 -17.0516 
18890 3 12.3502 32.9865 -19.2422 
20943 3 10.3285 32.9496 -17.1159 
12386 4 14.4089 30.9178 -19.2843 
12392 4 14.4018 35.0161 -19.1837 
14673 5 16.3943 32.9273 -17.0487 
16833 3 16.4078 30.8591 -17.1107 
16839 3 16.3994 34.9899 -16.9932 
19004 3 16.3945 32.9669 -19.1836 
21057 3 14.3707 32.931 -17.0763 
12500 4 18.4461 30.8894 -19.2291 
12506 4 18.4375 35.0056 -19.1112 
16947 3 20.4608 30.8247 -17.0319 
16952 3 20.5018 35.0222 -21.1807 
19118 3 20.4475 32.9487 -19.0727 
21171 3 18.4152 32.911 -16.9938 
12614 4 22.5034 30.8573 -19.0918 
12620 4 22.496 34.9919 -18.9641 
14900 5 24.6025 32.9478 -20.9711 
17060 3 24.6219 30.8789 -21.0192 
17066 3 24.6208 35.0057 -20.8879 
19232 3 24.5345 32.914 -18.873 
21284 3 22.5256 32.9572 -21.1299 
12728 4 26.6338 30.8253 -18.8589 
12734 4 26.6234 34.9768 -18.7199 
12848 4 30.796 34.9644 -18.4741 
15014 5 28.7673 32.9251 -20.6908 
17174 3 28.7715 30.8541 -20.7661 
17180 3 28.7684 34.9923 -20.6211 
19346 3 28.7111 32.896 -18.6219 
21398 3 26.685 32.9313 -20.8274 
12962 4 34.9599 34.9599 -18.317 
15128 5 32.9184 32.9184 -20.4883 
17288 3 32.9178 30.8461 -20.5701 
17294 3 32.9146 34.9855 -20.4212 
19460 3 32.8894 32.8894 -18.4198 
21512 3 30.8461 32.9178 -20.5701 
21626 3 34.9855 32.9146 -20.4212 
13076 4 39.1097 34.9596 -18.2725 
15242 5 37.0474 32.9167 -20.3906 
17402 3 37.0489 30.8449 -20.4723 
17408 3 37.0454 34.9848 -20.3197 
19574 3 37.0415 32.8877 -18.3159 
21740 3 39.1091 32.9135 -20.3788 
12056 4 2.25305 39.0987 -19.2098 
14337 5 4.26837 37.0618 -17.0605 
16503 3 4.27074 39.1057 -17.0558 
18668 3 4.26834 37.0725 -19.2192 
20721 3 2.25139 37.0621 -17.0712 
12170 4 6.29073 39.0996 -19.1973 
14451 5 8.30583 37.0599 -17.0457 
16617 3 8.3101 39.1057 -17.0436 
18782 3 8.30149 37.0707 -19.2049 
20835 3 6.28615 37.0607 -17.0575 
12284 4 10.3394 39.0973 -19.1788 
14565 5 12.3505 37.0529 -17.0235 
16731 3 12.352 39.1045 -17.0155 
18896 3 12.3519 37.0669 -19.1816 
20949 3 10.3262 37.0564 -17.0391 
12398 4 14.4002 39.0967 -19.1554 
14679 5 16.3906 37.0466 -16.9676 
19010 3 16.3889 37.0602 -19.1103 
21063 3 14.3663 37.05 -16.992 
12512 4 18.4357 39.0991 -19.0778 
14792 5 20.474 37.0618 -21.1721 