22829
Atoms. Timestep: 7
Sr 78.034 77.5342 -0.698779
Sr 78.0305 77.9573 3.34543
Sr 78.0259 77.9893 7.18444
Sr 78.0204 78.0005 11.0283
Sr 78.0143 78.0111 14.901
Sr 78.008 78.0263 18.8376
Sr 78.0352 3.33632 -0.915148
Sr 78.0312 3.76733 3.08169
Sr 78.0265 3.93389 7.02777
Sr 78.0209 3.99836 10.9262
Sr 78.0146 4.04188 14.8232
Sr 78.008 4.09136 18.7708
Sr 78.0343 7.26443 -1.04445
Sr 78.0306 7.55227 2.88914
Sr 78.0261 7.75059 6.84005
Sr 78.0206 7.86767 10.773
Sr 78.014 7.94906 14.6935
Sr 78.0073 8.03091 18.6541
Sr 78.0332 11.2057 -1.15899
Sr 78.0297 11.4184 2.7463
Sr 78.0252 11.5944 6.67241
Sr 78.0195 11.7309 10.6062
Sr 78.0128 11.8396 14.5381
Sr 78.0057 11.9448 18.5095
Sr 78.0322 15.167 -1.25839
Sr 78.0287 15.327 2.62768
Sr 78.024 15.4744 6.53023
Sr 78.018 15.6053 10.4506
Sr 78.011 15.7224 14.3819
Sr 78.0034 15.8371 18.3593
Sr 78.0315 19.1398 -1.34886
Sr 78.0277 19.2621 2.52545
Sr 78.0227 19.3809 6.41033
Sr 78.0163 19.4952 10.3165
Sr 78.0089 19.6049 14.2417
Sr 78.0008 19.715 18.2207
Sr 78.0308 23.1212 -1.42772
Sr 78.0267 23.2128 2.43873
Sr 78.0213 23.3049 6.31226
Sr 78.0146 23.3972 10.2073
Sr 78.0069 23.4899 14.126
Sr 77.9982 23.5846 18.1046
Sr 78.0298 27.1078 -1.49145
Sr 78.0255 27.1728 2.37044
Sr 78.0198 27.239 6.23687
Sr 78.0129 27.3072 10.1247
Sr 78.0049 27.3773 14.0382
Sr 77.9957 27.4496 18.0158
Sr 78.0289 31.0975 -1.53666
Sr 78.0244 31.1377 2.32282
Sr 78.0186 31.179 6.18527
Sr 78.0115 31.2219 10.0688
Sr 78.0032 31.2662 13.9792
Sr 77.9938 31.3123 17.9557
Sr 78.0281 35.089 -1.56104
Sr 78.0236 35.1054 2.29734
Sr 78.0176 35.1218 6.15806
Sr 78.0105 35.1386 10.0396
Sr 78.0022 35.1559 13.9485
Sr 77.9926 35.1733 17.9246
Sr 78.0278 39.0813 -1.56363
Sr 78.0231 39.0738 2.29476
Sr 78.0171 39.0651 6.15556
Sr 78.0101 39.0556 10.0374
Sr 78.0018 39.0449 13.9464
Sr 77.9922 39.0329 17.9228
Sr 78.0279 43.0734 -1.54435
Sr 78.0232 43.0414 2.31531
Sr 78.0173 43.0073 6.1784
Sr 78.0102 42.9708 10.0625
Sr 78.0021 42.9323 13.9737
Sr 77.9926 42.891 17.9508
Sr 78.0284 47.0636 -1.50387
Sr 78.0238 47.0057 2.35897
Sr 78.0179 46.9452 6.22689
Sr 78.0109 46.8823 10.1165
Sr 78.0029 46.8171 14.0315
Sr 77.9937 46.7483 18.01
Sr 78.0293 51.0498 -1.44379
Sr 78.0246 50.9632 2.42487
Sr 78.0188 50.8752 6.30154
Sr 78.0119 50.7868 10.2
Sr 78.0041 50.6982 14.1209
Sr 77.9953 50.6063 18.1009
Sr 78.0305 55.0291 -1.36593
Sr 78.0257 54.9085 2.51232
Sr 78.0198 54.7911 6.40296
Sr 78.013 54.6804 10.314
Sr 78.0055 54.5754 14.2417
Sr 77.9973 54.4684 18.2214
Sr 78.0318 58.9975 -1.27133
Sr 78.0268 58.833 2.62225
Sr 78.0209 58.6851 6.5331
Sr 78.0142 58.5598 10.4579
Sr 78.0072 58.4503 14.3889
Sr 77.9994 58.3406 18.3651
Sr 78.033 62.9488 -1.15789
Sr 78.028 62.7228 2.76101
Sr 78.022 62.5492 6.69576
Sr 78.0155 62.4263 10.6263
Sr 78.0088 62.3292 14.5518
Sr 78.0018 62.2304 18.5189
Sr 78.034 66.8643 -1.02009
Sr 78.0288 66.5551 2.95007
Sr 78.023 66.3852 6.89011
Sr 78.0169 66.2911 10.8031
Sr 78.0106 66.2216 14.71
Sr 78.004 66.1451 18.664
Sr 78.0344 70.6344 -0.731797
Sr 78.0292 70.3363 3.20264
Sr 78.0239 70.2204 7.08777
Sr 78.0183 70.1729 10.9543
Sr 78.0122 70.1353 14.8369
Sr 78.0059 70.0878 18.778
Sr 78.0334 74.3925 -0.336964
Sr 78.0295 74.1242 3.44259
Sr 78.0249 74.0921 7.21202
Sr 78.0195 74.0811 11.0405
Sr 78.0135 74.0695 14.9063
Sr 78.0073 74.0532 18.8403
Sr 4.11848 77.534 -0.689165
Sr 4.08931 77.9574 3.35765
Sr 4.05812 77.9893 7.19918
Sr 4.02478 78.0004 11.0453
Sr 3.98925 78.011 14.9196
Sr 3.95202 78.026 18.8572
Sr 4.12018 3.33816 -0.903659
Sr 4.09157 3.76691 3.09409
Sr 4.05937 3.93317 7.04275
Sr 4.02524 3.99718 10.9434
Sr 3.98918 4.04036 14.8422
Sr 3.95154 4.08953 18.7906
Sr 4.1183 7.26569 -1.03271
Sr 4.0906 7.55167 2.90248
Sr 4.05931 7.74904 6.85574
Sr 4.02483 7.86563 10.791
Sr 3.9884 7.94664 14.7132
Sr 3.95026 8.02795 18.6748
Sr 4.11707 11.2056 -1.14669
Sr 4.08901 11.4171 2.7607
Sr 4.05803 11.5923 6.68913
Sr 4.02367 11.7281 10.6253
Sr 3.98695 11.8364 14.559
Sr 3.94829 11.9412 18.5313
Sr 4.11571 15.1662 -1.24501
Sr 4.08739 15.3253 2.64305
Sr 4.05631 15.4718 6.54794
Sr 4.02201 15.6023 10.4708
Sr 3.98508 15.7191 14.4039
Sr 3.94598 15.8334 18.3821
Sr 4.11423 19.1387 -1.33436
Sr 4.08577 19.2603 2.54164
Sr 4.05449 19.3785 6.42891
Sr 4.02011 19.4925 10.3376
Sr 3.98307 19.602 14.2646
Sr 3.9436 19.7118 18.2445
Sr 4.11296 23.1202 -1.41251
Sr 4.08416 23.2114 2.45568
Sr 4.0526 23.303 6.3314
Sr 4.01821 23.395 10.2291
Sr 3.98112 23.4874 14.1497
Sr 3.94141 23.5818 18.1292
Sr 4.11151 27.1073 -1.47546
Sr 4.08245 27.1719 2.38793
Sr 4.05074 27.2377 6.25649
Sr 4.01642 27.3057 10.1469
Sr 3.97932 27.3755 14.0624
Sr 3.9396 27.4476 18.0409
Sr 4.11014 31.0972 -1.52028
Sr 4.0808 31.1373 2.34062
Sr 4.04911 31.1783 6.20532
Sr 4.01485 31.2211 10.0913
Sr 3.97796 31.2653 14.0037
Sr 3.93842 31.3111 17.9811
Sr 4.10885 35.0889 -1.5446
Sr 4.07953 35.1053 2.31523
Sr 4.04789 35.1216 6.17824
Sr 4.01387 35.1384 10.0623
Sr 3.97737 35.1556 13.9732
Sr 3.93793 35.173 17.9503
Sr 4.10812 39.0813 -1.54732
Sr 4.07892 39.074 2.31264
Sr 4.04747 39.0655 6.17572
Sr 4.01366 39.0559 10.06
Sr 3.97743 39.0453 13.9711
Sr 3.93821 39.0334 17.9484
Sr 4.10822 43.0735 -1.52829
Sr 4.07915 43.0417 2.33298
Sr 4.04787 43.0079 6.19831
Sr 4.01429 42.9717 10.085
Sr 3.97816 42.9334 13.9983
Sr 3.93918 42.8923 17.9763
Sr 4.1091 47.0636 -1.4881
Sr 4.0801 47.0061 2.37626
Sr 4.04892 46.9461 6.24642
Sr 4.01537 46.8835 10.1386
Sr 3.97939 46.8187 14.0557
Sr 3.94057 46.7503 18.0352
Sr 4.11057 51.0497 -1.42858
Sr 4.08153 50.9636 2.44172
Sr 4.05031 50.8761 6.32072
Sr 4.01671 50.7882 10.2218
Sr 3.98078 50.7001 14.1448
Sr 3.94218 50.6088 18.1256
Sr 4.11239 55.029 -1.35111
Sr 4.08329 54.9089 2.52882
Sr 4.05192 54.7921 6.42185
Sr 4.0182 54.6819 10.3354
Sr 3.98223 54.5775 14.2651
Sr 3.94393 54.4713 18.2456
Sr 4.1141 58.9974 -1.2569
Sr 4.08501 58.8334 2.63853
Sr 4.05349 58.686 6.55181
Sr 4.01968 58.5614 10.479
Sr 3.98372 58.4525 14.4118
Sr 3.94577 58.3436 18.3887
Sr 4.11563 62.9486 -1.14395
Sr 4.08643 62.7231 2.77702
Sr 4.05491 62.55 6.71425
Sr 4.02108 62.4278 10.6469
Sr 3.98525 62.3314 14.574
Sr 3.94763 62.2334 18.5416
Sr 4.11671 66.8639 -1.00681
Sr 4.08721 66.5549 2.96569
Sr 4.05586 66.3858 6.90802
Sr 4.02225 66.2925 10.823
Sr 3.9867 66.2237 14.7311
Sr 3.94948 66.1479 18.6857
Sr 4.11601 70.6331 -0.719403
Sr 4.08692 70.336 3.2175
Sr 4.05631 70.2211 7.10461
Sr 4.02316 70.1743 10.9729
Sr 3.9879 70.1371 14.857
Sr 3.95091 70.09 18.7986
Sr 4.11178 74.3918 -0.324813
Sr 4.08667 74.1244 3.45595
Sr 4.05691 74.0928 7.22747
Sr 4.02403 74.082 11.0579
Sr 3.98879 74.0705 14.9254
Sr 3.95181 74.0542 18.8601
Sr 8.11675 77.5328 -0.662139
Sr 8.05977 77.9588 3.39317
Sr 8.00271 77.9901 7.24047
Sr 7.94221 78.0009 11.0918
Sr 7.8783 78.011 14.9701
Sr 7.81123 78.0256 18.9092
Sr 8.11961 3.3421 -0.870401
Sr 8.06453 3.76805 3.13025
Sr 8.00486 3.93393 7.08491
Sr 7.94269 3.99713 10.9911
Sr 7.87775 4.03962 14.894
Sr 7.81004 4.08818 18.8439
Sr 8.1176 7.26819 -0.99927
Sr 8.06389 7.55218 2.93966
Sr 8.00519 7.74892 6.899
Sr 7.94217 7.86489 10.8403
Sr 7.87644 7.94531 14.7668
Sr 7.80804 8.02607 18.7299
Sr 8.11514 11.2063 -1.11262
Sr 8.06161 11.4166 2.79909
Sr 8.00339 11.5912 6.73363
Sr 7.94046 11.7266 10.676
Sr 7.87438 11.8348 14.6142
Sr 7.80542 11.9391 18.5879
Sr 8.11252 15.1653 -1.20965
Sr 8.05848 15.3236 2.68284
Sr 8.00038 15.4698 6.5936
Sr 7.93799 15.6005 10.5227
Sr 7.87199 15.7175 14.4601
Sr 7.80273 15.8318 18.4399
Sr 8.10986 19.1369 -1.29779
Sr 8.0555 19.2581 2.58233
Sr 7.99735 19.3762 6.47552
Sr 7.93526 19.4905 10.3901
Sr 7.8696 19.6004 14.3215
Sr 7.80028 19.7103 18.303
Sr 8.10771 23.1185 -1.37493
Sr 8.05285 23.2095 2.49709
Sr 7.99466 23.301 6.37841
Sr 7.93277 23.3935 10.2818
Sr 7.86757 23.4863 14.2068
Sr 7.7983 23.581 18.1878
Sr 8.10588 27.1059 -1.43747
Sr 8.0506 27.1704 2.42964
Sr 7.99221 27.2365 6.30353
Sr 7.9306 27.3047 10.1996
Sr 7.86583 27.3749 14.1193
Sr 7.79698 27.4472 18.0994
Sr 8.1038 31.0966 -1.48205
Sr 8.04842 31.1366 2.38228
Sr 7.99009 31.1778 6.25216
Sr 7.92892 31.2206 10.1437
Sr 7.86471 31.2652 14.0602
Sr 7.79635 31.3112 18.0393
Sr 8.10215 35.0888 -1.50655
Sr 8.04685 35.1052 2.35663
Sr 7.98876 35.1217 6.2248
Sr 7.92802 35.1386 10.1144
Sr 7.86446 35.156 14.0294
Sr 7.79659 35.1736 18.008
Sr 8.10125 39.0817 -1.50961
Sr 8.04619 39.0745 2.35373
Sr 7.98848 39.0661 6.22199
Sr 7.9281 39.0567 10.1117
Sr 7.86506 39.0462 14.027
Sr 7.79767 39.0346 18.0059
Sr 8.10148 43.0741 -1.49082
Sr 8.04664 43.0427 2.37383
Sr 7.98927 43.0089 6.24428
Sr 7.92926 42.973 10.1365
Sr 7.86637 42.9348 14.0538
Sr 7.79932 42.894 18.0335
Sr 8.10266 47.0645 -1.45103
Sr 8.04807 47.0073 2.41693
Sr 7.99089 46.9475 6.29226
Sr 7.93095 46.8852 10.1899
Sr 7.86811 46.8205 14.1111
Sr 7.80128 46.7523 18.0922
Sr 8.10478 51.0508 -1.39172
Sr 8.05031 50.9652 2.48231
Sr 7.99312 50.8779 6.36646
Sr 7.93301 50.7902 10.2729
Sr 7.86997 50.7021 14.2001
Sr 7.80321 50.6111 18.1823
Sr 8.10718 55.0299 -1.31419
Sr 8.05294 54.9105 2.56934
Sr 7.9957 54.7942 6.46756
Sr 7.93525 54.684 10.3865
Sr 7.87184 54.5797 14.3201
Sr 7.80501 54.4739 18.3021
Sr 8.10942 58.9981 -1.22043
Sr 8.05544 58.835 2.67883
Sr 7.99822 58.688 6.59734
Sr 7.93741 58.5635 10.5296
Sr 7.87367 58.4548 14.4664
Sr 7.8068 58.3463 18.4446
Sr 8.11133 62.9486 -1.1081
Sr 8.05736 62.7243 2.81686
Sr 8.00014 62.5518 6.75935
Sr 7.93924 62.4298 10.697
Sr 7.87528 62.3337 14.6277
Sr 7.80851 62.236 18.5966
Sr 8.1126 66.8629 -0.971865
Sr 8.05845 66.5556 3.00466
Sr 8.00117 66.3872 6.95204
Sr 7.94041 66.2943 10.8719
Sr 7.8767 66.2258 14.7836
Sr 7.81004 66.1502 18.7395
Sr 8.11066 70.6311 -0.68491
Sr 8.05779 70.3361 3.25513
Sr 8.00116 70.2222 7.14731
Sr 7.94113 70.1759 11.0205
Sr 7.87768 70.1387 14.9082
Sr 7.81114 70.0917 18.8513
Sr 8.10323 74.3898 -0.291969
Sr 8.05583 74.1248 3.49241
Sr 8.00106 74.0937 7.26882
Sr 7.94157 74.0831 11.1045
Sr 7.87819 74.0715 14.9756
Sr 7.81153 74.055 18.912
Sr 12.1055 77.5299 -0.615354
Sr 12.0233 77.9607 3.45409
Sr 11.9407 77.9914 7.30858
Sr 11.8538 78.0014 11.1689
Sr 11.7637 78.0112 15.0546
Sr 11.6704 78.0253 18.9962
Sr 12.1183 3.34148 -0.817618
Sr 12.0316 3.77084 3.19059
Sr 11.9439 3.93567 7.15455
Sr 11.8539 3.99775 11.0707
Sr 11.7625 4.03958 14.9808
Sr 11.6684 4.0874 18.9328
Sr 12.1155 7.26822 -0.946845
Sr 12.0329 7.55305 2.99918
Sr 11.9444 7.74992 6.97006
Sr 11.8528 7.86541 10.9224
Sr 11.7603 7.94532 14.8562
Sr 11.6656 8.02546 18.8212
Sr 12.1113 11.2058 -1.05842
Sr 12.0292 11.4159 2.86001
Sr 11.9416 11.5909 6.80586
Sr 11.8501 11.7268 10.7599
Sr 11.7574 11.8351 14.7056
Sr 11.6623 11.9391 18.6811
Sr 12.1062 15.1638 -1.15396
Sr 12.0236 15.322 2.74559
Sr 11.937 15.4685 6.66711
Sr 11.8464 15.6002 10.6076
Sr 11.7544 15.7178 14.5525
Sr 11.6592 15.8322 18.534
Sr 12.1014 19.1348 -1.2404
Sr 12.0183 19.2558 2.64672
Sr 11.9319 19.3745 6.55004
Sr 11.8427 19.4899 10.4753
Sr 11.7516 19.6009 14.4138
Sr 11.6567 19.7113 18.3972
Sr 12.0977 23.1162 -1.31615
Sr 12.0141 23.2072 2.56226
Sr 11.9277 23.2994 6.45336
Sr 11.8393 23.3929 10.3668
Sr 11.7493 23.4868 14.2986
Sr 11.6549 23.5822 18.2814
Sr 12.095 27.104 -1.37846
Sr 12.0109 27.1689 2.4948
Sr 11.9245 27.2354 6.37826
Sr 11.8367 27.3045 10.2838
Sr 11.7476 27.3756 14.2103
Sr 11.654 27.4487 18.192
Sr 12.0924 31.0957 -1.42332
Sr 12.0082 31.1359 2.44715
Sr 11.922 31.1774 6.3262
Sr 11.8349 31.2209 10.2272
Sr 11.7466 31.2661 14.1501
Sr 11.654 31.3128 18.1309
Sr 12.0903 35.0887 -1.44819
Sr 12.0062 35.1053 2.42101
Sr 11.9206 35.1221 6.29821
Sr 11.8342 35.1394 10.1971
Sr 11.7468 35.1571 14.1184
Sr 11.6549 35.1753 18.0988
Sr 12.0895 39.0822 -1.45169
Sr 12.0057 39.0753 2.41753
Sr 11.9206 39.0671 6.29483
Sr 11.8348 39.0578 10.1938
Sr 11.7479 39.0475 14.1154
Sr 11.6568 39.0362 18.096
Sr 12.0897 43.0754 -1.43345
Sr 12.0065 43.0441 2.4373
Sr 11.9219 43.0105 6.31671
Sr 11.8366 42.9745 10.2182
Sr 11.7501 42.9362 14.1418
Sr 11.6591 42.8956 18.1232
Sr 12.0913 47.0663 -1.39394
Sr 12.0087 47.0095 2.48024
Sr 11.9244 46.9496 6.36454
Sr 11.8391 46.8871 10.2714
Sr 11.7526 46.8221 14.1989
Sr 11.6618 46.754 18.1817
Sr 12.094 51.0531 -1.33439
Sr 12.0119 50.9679 2.54565
Sr 11.9279 50.8807 6.43864
Sr 11.8422 50.7925 10.3543
Sr 11.7551 50.7041 14.2879
Sr 11.6643 50.613 18.2718
Sr 12.0974 55.0326 -1.25743
Sr 12.016 54.914 2.63229
Sr 11.932 54.7975 6.53948
Sr 11.8456 54.6867 10.4678
Sr 11.7577 54.5818 14.4078
Sr 11.6664 54.4758 18.3915
Sr 12.1006 59.0007 -1.16402
Sr 12.0202 58.8388 2.74141
Sr 11.9362 58.6917 6.66889
Sr 11.849 58.5663 10.6106
Sr 11.76 58.457 14.5539
Sr 11.6684 58.3484 18.5337
Sr 12.1033 62.9499 -1.05306
Sr 12.0236 62.7276 2.8783
Sr 11.9397 62.5553 6.82991
Sr 11.8518 62.4326 10.7772
Sr 11.762 62.3358 14.7145
Sr 11.6701 62.2382 18.6851
Sr 12.1058 66.8636 -0.918023
Sr 12.0252 66.5579 3.06499
Sr 11.9414 66.3898 7.02123
Sr 11.8534 66.2967 10.9507
Sr 11.7635 66.2278 14.8692
Sr 11.6713 66.1522 18.827
Sr 12.1024 70.6306 -0.632781
Sr 12.0236 70.337 3.31439
Sr 11.9405 70.2236 7.21515
Sr 11.8537 70.1777 11.0977
Sr 11.7642 70.1405 14.9924
Sr 11.6719 70.0932 18.9377
Sr 12.0927 74.3906 -0.239092
Sr 12.0187 74.1258 3.55208
Sr 11.939 74.0947 7.33594
Sr 11.8536 74.0842 11.1806
Sr 11.7642 74.0725 15.0592
Sr 11.6715 74.0556 18.998
Sr 16.0914 77.5483 -0.51174
Sr 15.9798 77.9634 3.53993
Sr 15.8671 77.993 7.4037
Sr 15.7536 78.0023 11.2791
Sr 15.6435 78.0119 15.1746
Sr 15.5322 78.0255 19.118
Sr 16.1127 3.33972 -0.746239
Sr 15.9907 3.77397 3.27353
Sr 15.87 3.93838 7.25344
Sr 15.7526 3.99939 11.185
Sr 15.6413 4.04055 15.1041
Sr 15.5293 4.08785 19.0573
Sr 16.111 7.26467 -0.876443
Sr 15.9928 7.55364 3.08063
Sr 15.87 7.75282 7.07064
Sr 15.7504 7.8681 11.0399
Sr 15.638 7.9472 14.9826
Sr 15.5255 8.02667 18.9482
Sr 16.1042 11.2035 -0.985689
Sr 15.987 11.4148 2.94264
Sr 15.8661 11.5919 6.9071
Sr 15.747 11.7293 10.8788
Sr 15.6345 11.8377 14.8337
Sr 15.5217 11.9414 18.8098
Sr 16.0951 15.1615 -1.07878
Sr 15.9782 15.3198 2.83071
Sr 15.8592 15.4682 6.7694
Sr 15.7423 15.6019 10.7267
Sr 15.631 15.7209 14.6808
Sr 15.5183 15.8354 18.6629
Sr 16.0867 19.1321 -1.1633
Sr 15.9694 19.2533 2.73383
Sr 15.8518 19.3735 6.65317
Sr 15.7377 19.4911 10.5941
Sr 15.628 19.6037 14.5412
Sr 15.5158 19.7149 18.5253
Sr 16.0806 23.1135 -1.23818
Sr 15.9627 23.205 2.65042
Sr 15.8459 23.2984 6.55675
Sr 15.7336 23.3938 10.4846
Sr 15.6255 23.4894 14.4245
Sr 15.5143 23.5859 18.408
Sr 16.0763 27.1023 -1.30001
Sr 15.9578 27.1675 2.58299
Sr 15.8416 27.2351 6.48126
Sr 15.7306 27.3055 10.4005
Sr 15.6239 27.3779 14.3346
Sr 15.5138 27.4521 18.3169
Sr 16.0731 31.0948 -1.3453
Sr 15.9545 31.1355 2.53481
Sr 15.8387 31.1776 6.42834
Sr 15.7287 31.222 10.3427
Sr 15.6233 31.2682 14.273
Sr 15.5144 31.3158 18.2543
Sr 16.0709 35.0885 -1.37116
Sr 15.9526 35.1055 2.50773
Sr 15.8374 35.1227 6.39929
Sr 15.7283 35.1406 10.3113
Sr 15.6239 35.159 14.24
Sr 15.516 35.1778 18.221
Sr 16.07 39.0829 -1.37544
Sr 15.9522 39.0762 2.50342
Sr 15.8378 39.0683 6.39501
Sr 15.7295 39.0592 10.3071
Sr 15.6258 39.0492 14.236
Sr 15.5186 39.0382 18.2172
Sr 16.0705 43.077 -1.35763
Sr 15.9536 43.0459 2.5226
Sr 15.8399 43.0124 6.41624
Sr 15.732 42.9762 10.3308
Sr 15.6285 42.9378 14.2618
Sr 15.5217 42.8972 18.2438
Sr 16.0725 47.0691 -1.31819
Sr 15.9566 47.0125 2.5651
Sr 15.8435 46.9525 6.46347
Sr 15.7356 46.8893 10.3835
Sr 15.6319 46.8236 14.3186
Sr 15.5251 46.7552 18.3021
Sr 16.0761 51.0569 -1.25953
Sr 15.9613 50.9722 2.62967
Sr 15.8486 50.8846 6.53687
Sr 15.7399 50.7951 10.4662
Sr 15.6353 50.7056 14.4075
Sr 15.5282 50.6141 18.3922
Sr 16.0812 55.0375 -1.18311
Sr 15.9677 54.9195 2.71534
Sr 15.8549 54.8022 6.63692
Sr 15.7446 54.6897 10.5795
Sr 15.6386 54.5834 14.5276
Sr 15.5308 54.477 18.5121
Sr 16.087 59.0064 -1.09115
Sr 15.9749 58.8453 2.82305
Sr 15.8617 58.6971 6.76535
Sr 15.7494 58.5695 10.7221
Sr 15.6415 58.4587 14.6739
Sr 15.5331 58.3497 18.6545
Sr 16.0915 62.9557 -0.981644
Sr 15.9816 62.7348 2.95837
Sr 15.8681 62.5613 6.92472
Sr 15.7533 62.4359 10.8882
Sr 15.6439 62.3378 14.8344
Sr 15.5347 62.2396 18.8059
Sr 16.0938 66.8658 -0.849527
Sr 15.9857 66.5647 3.14273
Sr 15.8716 66.3952 7.11402
Sr 15.7556 66.3 11.0605
Sr 15.6454 66.23 14.9884
Sr 15.5357 66.1537 18.9474
Sr 16.0898 70.6336 -0.562847
Sr 15.9844 70.3415 3.39117
Sr 15.8702 70.2265 7.30662
Sr 15.7558 70.1802 11.2059
Sr 15.6457 70.1423 15.1108
Sr 15.5355 70.0944 19.0577
Sr 16.0735 74.397 -0.171497
Sr 15.975 74.1271 3.63051
Sr 15.8664 74.0958 7.42784
Sr 15.7546 74.0856 11.2883
Sr 15.645 74.0738 15.1775
Sr 15.5344 74.0564 19.1183
Sr 20.0584 77.5409 -0.429081
Sr 19.9238 77.962 3.64828
Sr 19.7718 77.9949 7.53169
Sr 19.6362 78.0039 11.4253
Sr 19.5186 78.0136 15.3275
Sr 19.4019 78.0269 19.2694
Sr 20.0997 3.33462 -0.658645
Sr 19.9326 3.78413 3.3893
Sr 19.7725 3.94411 7.3895
Sr 19.6333 4.00233 11.3374
Sr 19.5149 4.0431 15.2607
Sr 19.3979 4.09006 19.2113
Sr 20.105 7.26136 -0.790655
Sr 19.9363 7.56027 3.19039
Sr 19.772 7.75932 7.20748
Sr 19.6296 7.87353 11.1956
Sr 19.5108 7.95151 15.1421
Sr 19.3936 8.03032 19.1043
Sr 20.0917 11.1996 -0.895107
Sr 19.9293 11.4132 3.04926
Sr 19.7671 11.5954 7.04233
Sr 19.6254 11.7353 11.0345
Sr 19.5066 11.8433 14.9942
Sr 19.3894 11.9465 18.9669
Sr 20.0772 15.1569 -0.985474
Sr 19.9144 15.3165 2.93955
Sr 19.7581 15.4691 6.90371
Sr 19.621 15.607 10.8806
Sr 19.5031 15.7269 14.8405
Sr 19.3861 15.8414 18.8195
Sr 20.0629 19.1288 -1.06777
Sr 19.9004 19.2508 2.84513
Sr 19.7488 19.3735 6.78751
Sr 19.6164 19.4945 10.7457
Sr 19.5002 19.6091 14.6989
Sr 19.3837 19.7212 18.6802
Sr 20.0524 23.1115 -1.14175
Sr 19.89 23.2035 2.76267
Sr 19.7409 23.2985 6.69086
Sr 19.6121 23.3965 10.6346
Sr 19.498 23.4941 14.5798
Sr 19.3825 23.5919 18.5606
Sr 20.046 27.1012 -1.20347
Sr 19.8833 27.1667 2.69529
Sr 19.7355 27.2355 6.61461
Sr 19.6089 27.3077 10.5489
Sr 19.4966 27.3819 14.4878
Sr 19.3825 27.4573 18.4673
Sr 20.0423 31.0943 -1.24964
Sr 19.8793 31.1354 2.64629
Sr 19.7325 31.1785 6.56058
Sr 19.6073 31.224 10.4893
Sr 19.4966 31.2714 14.4243
Sr 19.3837 31.3201 18.4027
Sr 20.0403 35.0887 -1.27635
Sr 19.8775 35.1059 2.61813
Sr 19.7314 35.1237 6.53024
Sr 19.6074 35.1423 10.4566
Sr 19.4977 35.1614 14.3898
Sr 19.386 35.181 18.3678
Sr 20.0392 39.0834 -1.28152
Sr 19.8774 39.0769 2.61273
Sr 19.7322 39.0695 6.52471
Sr 19.6091 39.0608 10.4511
Sr 19.5001 39.051 14.3845
Sr 19.3891 39.0403 18.3629
Sr 20.0396 43.0784 -1.26437
Sr 19.8792 43.0477 2.63092
Sr 19.7349 43.0143 6.54475
Sr 19.6121 42.9779 10.4736
Sr 19.5034 42.9391 14.4093
Sr 19.3929 42.8985 18.3887
Sr 20.0426 47.0723 -1.22581
Sr 19.8837 47.0162 2.67208
Sr 19.74 46.9559 6.59046
Sr 19.6165 46.8915 10.5253
Sr 19.5074 46.8248 14.4656
Sr 19.3968 46.756 18.4466
Sr 20.0483 51.0619 -1.16821
Sr 19.8912 50.9779 2.73471
Sr 19.7469 50.8892 6.66241
Sr 19.622 50.7978 10.6074
Sr 19.5115 50.7066 14.5545
Sr 19.4004 50.6144 18.5368
Sr 20.0565 55.0442 -1.09422
Sr 19.9008 54.9267 2.81782
Sr 19.7555 54.8078 6.76104
Sr 19.6277 54.6924 10.7207
Sr 19.5154 54.5842 14.675
Sr 19.4035 54.4773 18.6572
Sr 20.0668 59.015 -1.00387
Sr 19.9126 58.8547 2.9231
Sr 19.7648 58.7036 6.88822
Sr 19.6331 58.5723 10.8639
Sr 19.5188 58.4597 14.8221
Sr 19.406 58.3499 18.8003
Sr 20.0766 62.9677 -0.8962
Sr 19.9253 62.7477 3.05523
Sr 19.7735 62.5689 7.04667
Sr 19.6373 62.439 11.0306
Sr 19.5211 62.3391 14.9833
Sr 19.4076 62.2401 18.9525
Sr 20.0808 66.8802 -0.766813
Sr 19.9393 66.5836 3.23185
Sr 19.7798 66.4031 7.23455
Sr 19.6401 66.3039 11.203
Sr 19.5226 66.2319 15.1378
Sr 19.4081 66.1546 19.0947
Sr 20.0771 70.6411 -0.48513
Sr 19.9425 70.3555 3.47382
Sr 19.78 70.2332 7.42491
Sr 19.6405 70.1841 11.3478
Sr 19.5225 70.1447 15.2604
Sr 19.4072 70.0955 19.2058
Sr 20.0584 74.4034 -0.0929896
Sr 19.9226 74.1259 3.7215
Sr 19.7738 74.0983 7.54734
Sr 19.6385 74.0884 11.4304
Sr 19.521 74.0758 15.328
Sr 19.405 74.0575 19.2677
Sr 23.9662 77.614 -0.186758
Sr 23.8337 77.9789 3.80497
Sr 23.6401 77.997 7.70566
Sr 23.5033 78.0064 11.6052
Sr 23.3952 78.0167 15.5034
Sr 23.2873 78.0297 19.438
Sr 24.0612 3.44201 -0.474619
Sr 23.8521 3.80865 3.54625
Sr 23.6387 3.9513 7.57618
Sr 23.499 4.00656 11.5234
Sr 23.3907 4.04762 15.4396
Sr 23.2827 4.09448 19.3817
Sr 24.1073 7.27026 -0.682854
Sr 23.8618 7.56499 3.33083
Sr 23.6356 7.77067 7.3951
Sr 23.4934 7.88163 11.3853
Sr 23.386 7.95861 15.3229
Sr 23.278 8.03678 19.2758
Sr 24.0759 11.1923 -0.786254
Sr 23.8447 11.4078 3.18666
Sr 23.6305 11.6066 7.22311
Sr 23.4886 11.7455 11.2227
Sr 23.3816 11.8521 15.1751
Sr 23.274 11.9545 19.1383
Sr 24.0455 15.1494 -0.871657
Sr 23.8175 15.311 3.07959
Sr 23.6242 15.4728 7.0763
Sr 23.4844 15.6155 11.0643
Sr 23.378 15.7359 15.0195
Sr 23.2709 15.8503 18.9896
Sr 24.0208 19.1257 -0.952358
Sr 23.7955 19.2487 2.98749
Sr 23.6134 19.3754 6.95732
Sr 23.48 19.5009 10.9255
Sr 23.3752 19.6172 14.8749
Sr 23.2688 19.73 18.8476
Sr 24.0056 23.1113 -1.02538
Sr 23.7814 23.2034 2.90555
Sr 23.6045 23.3007 6.85945
Sr 23.476 23.4013 10.8115
Sr 23.3733 23.5008 14.7527
Sr 23.268 23.5998 18.7252
Sr 23.9974 27.1015 -1.08718
Sr 23.7731 27.1674 2.83743
Sr 23.5986 27.2375 6.78185
Sr 23.4731 27.3115 10.7235
Sr 23.3725 27.3872 14.658
Sr 23.2686 27.4639 18.6292
Sr 23.9935 31.0945 -1.13361
Sr 23.7691 31.1361 2.78766
Sr 23.5958 31.18 6.72653
Sr 23.4721 31.2268 10.6621
Sr 23.373 31.2754 14.5924
Sr 23.2703 31.3251 18.5625
Sr 23.9917 35.0889 -1.16131
Sr 23.7674 35.1065 2.75837
Sr 23.5951 35.125 6.69484
Sr 23.4726 35.1443 10.6277
Sr 23.3746 35.164 14.5562
Sr 23.273 35.1844 18.526
Sr 23.9906 39.084 -1.16745
Sr 23.7673 39.0777 2.75184
Sr 23.5961 39.0706 6.68781
Sr 23.4744 39.0622 10.6207
Sr 23.3772 39.0527 14.5495
Sr 23.2765 39.0424 18.5198
Sr 23.9904 43.0793 -1.1514
Sr 23.7694 43.049 2.7686
Sr 23.5991 43.016 6.70619
Sr 23.4777 42.9793 10.6417
Sr 23.3807 42.9401 14.5732
Sr 23.2804 42.8994 18.5446
Sr 23.9946 47.0743 -1.11445
Sr 23.7755 47.0194 2.80777
Sr 23.6054 46.9592 6.74966
Sr 23.4825 46.893 10.6921
Sr 23.3848 46.8252 14.6287
Sr 23.2845 46.7561 18.6019
Sr 24.0049 51.0677 -1.05949
Sr 23.7877 50.9847 2.86617
Sr 23.6142 50.8935 6.81948
Sr 23.4883 50.7994 10.7736
Sr 23.3891 50.7066 14.7174
Sr 23.2883 50.6138 18.6921
Sr 24.0198 55.0524 -0.990262
Sr 23.8024 54.9352 2.94523
Sr 23.6243 54.8128 6.91682
Sr 23.4942 54.6935 10.8873
Sr 23.3932 54.5838 14.8386
Sr 23.2916 54.4763 18.8131
Sr 24.0347 59.0235 -0.903308
Sr 23.8184 58.8647 3.04775
Sr 23.6343 58.7092 7.04442
Sr 23.4996 58.5736 11.032
Sr 23.3967 58.4595 14.9869
Sr 23.2942 58.349 18.9574
Sr 24.0493 62.9854 -0.799244
Sr 23.8357 62.7643 3.17758
Sr 23.643 62.5757 7.20492
Sr 23.504 62.4413 11.2008
Sr 23.3993 62.3396 15.1498
Sr 23.2957 62.2395 19.1113
Sr 24.0688 66.9224 -0.682498
Sr 23.8528 66.6054 3.3514
Sr 23.6478 66.4106 7.39596
Sr 23.5068 66.308 11.3752
Sr 23.4006 66.2335 15.3062
Sr 23.2958 66.1545 19.2558
Sr 24.1251 70.7709 -0.467037
Sr 23.8605 70.3802 3.58042
Sr 23.6497 70.2443 7.58505
Sr 23.5078 70.1895 11.5212
Sr 23.4003 70.1471 15.4308
Sr 23.2942 70.0961 19.3694
Sr 24.1222 74.475 -0.141059
Sr 23.8412 74.1393 3.82473
Sr 23.6456 74.1054 7.70735
Sr 23.5065 74.0929 11.6052
Sr 23.3984 74.0785 15.5009
Sr 23.2912 74.0591 19.4338
Sr 28.0834 77.7137 0.0473874
Sr 27.6971 77.9794 4.01835
Sr 27.4878 77.9975 7.91541
Sr 27.3684 78.0094 11.8023
Sr 27.284 78.0206 15.6832
Sr 27.1969 78.0336 19.6048
Sr 28.2469 3.47482 -0.335916
Sr 27.6734 3.7955 3.81766
Sr 27.4808 3.95473 7.80708
Sr 27.3628 4.01208 11.7254
Sr 27.2792 4.05417 15.6211
Sr 27.1922 4.10099 19.5494
Sr 28.1664 7.24133 -0.570289
Sr 27.6738 7.62129 3.58955
Sr 27.4733 7.78565 7.63118
Sr 27.3563 7.8919 11.5891
Sr 27.2744 7.96795 15.5043
Sr 27.1877 8.0456 19.443
Sr 28.0577 11.168 -0.656977
Sr 27.6969 11.407 3.38511
Sr 27.4663 11.6192 7.44528
Sr 27.3502 11.7582 11.4243
Sr 27.2699 11.8634 15.3549
Sr 27.184 11.9649 19.3039
Sr 27.9754 15.1435 -0.730174
Sr 27.6605 15.302 3.27051
Sr 27.4562 15.481 7.28699
Sr 27.3451 15.6275 11.2605
Sr 27.2664 15.7473 15.1962
Sr 27.1812 15.8613 19.1525
Sr 27.9381 19.1263 -0.810442
Sr 27.629 19.2485 3.18224
Sr 27.4452 19.3815 7.16247
Sr 27.3409 19.5105 11.1161
Sr 27.264 19.6274 15.0476
Sr 27.1797 19.7404 19.0072
Sr 27.9211 23.1126 -0.883629
Sr 27.613 23.2059 3.1003
Sr 27.4375 23.3058 7.06167
Sr 27.3376 23.4085 10.9981
Sr 27.2625 23.509 14.9217
Sr 27.1794 23.6087 18.8814
Sr 27.9126 27.1026 -0.945616
Sr 27.6049 27.1697 3.03109
Sr 27.4327 27.2413 6.982
Sr 27.3355 27.3166 10.9074
Sr 27.2622 27.3932 14.8241
Sr 27.1805 27.471 18.7826
Sr 27.9088 31.0951 -0.992507
Sr 27.601 31.1374 2.98021
Sr 27.4305 31.1824 6.92486
Sr 27.3351 31.2301 10.8439
Sr 27.263 31.2795 14.7562
Sr 27.1825 31.3302 18.7137
Sr 27.9075 35.0893 -1.0208
Sr 27.5996 35.1074 2.94997
Sr 27.4302 35.1264 6.89176
Sr 27.3358 35.1462 10.8079
Sr 27.2647 35.1666 14.7183
Sr 27.1852 35.1877 18.6756
Sr 27.9062 39.0844 -1.02809
Sr 27.5996 39.0783 2.94211
Sr 27.431 39.0714 6.88339
Sr 27.3373 39.0632 10.7995
Sr 27.2671 39.0539 14.7103
Sr 27.1883 39.044 18.6681
Sr 27.9061 43.0801 -1.01303
Sr 27.6018 43.0496 2.95731
Sr 27.4337 43.0166 6.90014
Sr 27.34 42.9796 10.8191
Sr 27.2701 42.9403 14.7328
Sr 27.1919 42.8997 18.692
Sr 27.9088 47.0751 -0.978458
Sr 27.6088 47.0213 2.99401
Sr 27.4397 46.9606 6.94155
Sr 27.3443 46.8931 10.8683
Sr 27.2737 46.8246 14.7875
Sr 27.1956 46.7553 18.7486
Sr 27.9239 51.0704 -0.926278
Sr 27.6278 50.9938 3.04467
Sr 27.4492 50.8963 7.00918
Sr 27.3499 50.799 10.9494
Sr 27.2778 50.7053 14.8761
Sr 27.1993 50.6122 18.8387
Sr 27.9655 55.0643 -0.868703
Sr 27.6466 54.9437 3.1212
Sr 27.4596 54.8149 7.10677
Sr 27.3559 54.6927 11.064
Sr 27.282 54.5821 14.9981
Sr 27.2027 54.4741 18.9604
Sr 27.9814 59.03 -0.787302
Sr 27.6639 58.8728 3.22157
Sr 27.4656 58.7078 7.23907
Sr 27.3606 58.5722 11.2114
Sr 27.2856 58.4579 15.1482
Sr 27.2053 58.3467 19.1064
Sr 27.9846 63.0064 -0.681015
Sr 27.6784 62.7763 3.3528
Sr 27.4725 62.5783 7.40475
Sr 27.3649 62.4419 11.3833
Sr 27.2882 62.3389 15.3135
Sr 27.2067 62.2375 19.2631
Sr 28.042 66.9561 -0.573207
Sr 27.6922 66.6228 3.53436
Sr 27.4795 66.4193 7.60017
Sr 27.3687 66.3115 11.5604
Sr 27.2896 66.234 15.4735
Sr 27.2064 66.1533 19.4114
Sr 28.0359 70.796 -0.359276
Sr 27.6813 70.374 3.7805
Sr 27.4851 70.2559 7.79217
Sr 27.3711 70.1947 11.71
Sr 27.2893 70.1487 15.6025
Sr 27.2045 70.0962 19.5295
Sr 27.948 74.5096 -0.0439687
Sr 27.6763 74.169 4.01925
Sr 27.4891 74.1144 7.91195
Sr 27.3714 74.097 11.7974
Sr 27.2874 74.0811 15.6772
Sr 27.2012 74.0607 19.598
Sr 31.8829 77.7625 0.121535
Sr 31.4936 77.9704 4.25741
Sr 31.3277 77.9959 8.13573
Sr 31.2478 78.0121 11.9863
Sr 31.1942 78.0248 15.8406
Sr 31.1361 78.0379 19.747
Sr 32.022 3.47627 -0.0823443
Sr 31.5246 3.80873 4.11885
Sr 31.3229 3.95891 8.03789
Sr 31.2425 4.01863 11.9113
Sr 31.1899 4.06176 15.7788
Sr 31.1319 4.10838 19.6917
Sr 32.1311 7.17039 -0.390313
Sr 31.5205 7.64589 3.89355
Sr 31.3116 7.79981 7.86592
Sr 31.2356 7.90374 11.7729
Sr 31.1853 7.97861 15.6597
Sr 31.1279 8.05545 19.5831
Sr 31.97 11.0583 -0.417761
Sr 31.4595 11.4154 3.66643
Sr 31.2955 11.638 7.67635
Sr 31.2286 11.7735 11.6037
Sr 31.181 11.8761 15.5064
Sr 31.1245 11.9763 19.4407
Sr 31.7523 15.1389 -0.442062
Sr 31.4225 15.3125 3.5416
Sr 31.283 15.4981 7.50866
Sr 31.2229 15.6426 11.4337
Sr 31.1776 15.7601 15.3432
Sr 31.122 15.873 19.2854
Sr 31.708 19.1364 -0.51591
Sr 31.4035 19.2562 3.44529
Sr 31.2745 19.3936 7.37465
Sr 31.2189 19.5227 11.2826
Sr 31.1754 19.6386 15.1899
Sr 31.1208 19.7512 19.1359
Sr 31.692 23.1202 -0.590628
Sr 31.391 23.2129 3.36059
Sr 31.2691 23.3142 7.26912
Sr 31.2167 23.417 11.1597
Sr 31.1742 23.5176 15.0597
Sr 31.1208 23.6178 19.0062
Sr 31.6839 27.107 -0.653355
Sr 31.3848 27.174 3.28916
Sr 31.2659 27.2466 7.18652
Sr 31.2156 27.3221 11.0657
Sr 31.1743 27.3992 14.9588
Sr 31.1219 27.4779 18.9043
Sr 31.6801 31.0977 -0.700879
Sr 31.3817 31.1398 3.23652
Sr 31.2645 31.1853 7.12726
Sr 31.2156 31.2334 11.0001
Sr 31.1752 31.2833 14.8887
Sr 31.1239 31.3348 18.8332
Sr 31.6787 35.0904 -0.729957
Sr 31.3804 35.1085 3.20506
Sr 31.2643 35.1279 7.09277
Sr 31.2161 35.1478 10.9625
Sr 31.1767 35.1687 14.8491
Sr 31.1262 35.1904 18.7935
Sr 31.6781 39.0844 -0.737563
Sr 31.3806 39.0788 3.19622
Sr 31.2647 39.0717 7.08336
Sr 31.217 39.0635 10.953
Sr 31.1782 39.0545 14.8401
Sr 31.1286 39.045 18.785
Sr 31.6779 43.0787 -0.724136
Sr 31.3826 43.0492 3.21036
Sr 31.2665 43.0156 7.09962
Sr 31.2187 42.9788 10.9721
Sr 31.1802 42.9397 14.8618
Sr 31.1312 42.8992 18.8081
Sr 31.6808 47.0731 -0.689544
Sr 31.3885 47.0204 3.24579
Sr 31.2703 46.9578 7.14108
Sr 31.2218 46.8911 11.0212
Sr 31.183 46.8229 14.9161
Sr 31.1339 46.7536 18.8643
Sr 31.6921 51.0729 -0.639715
Sr 31.4034 50.9953 3.2927
Sr 31.2782 50.8939 7.20804
Sr 31.2266 50.7964 11.1025
Sr 31.1866 50.7027 15.0048
Sr 31.1368 50.6095 18.9546
Sr 31.8282 55.1154 -0.647471
Sr 31.4271 54.9462 3.36033
Sr 31.2878 54.8117 7.3066
Sr 31.2323 54.6896 11.2188
Sr 31.1905 54.5791 15.128
Sr 31.1399 54.4707 19.0772
Sr 31.8443 58.9926 -0.565374
Sr 31.4385 58.8704 3.46586
Sr 31.2941 58.7043 7.44391
Sr 31.2369 58.5692 11.3693
Sr 31.1942 58.4549 15.2803
Sr 31.1424 58.3432 19.2255
Sr 31.7694 63.0213 -0.401709
Sr 31.4123 62.7445 3.64331
Sr 31.297 62.5729 7.62145
Sr 31.2407 62.44 11.5451
Sr 31.197 62.3368 15.4492
Sr 31.1439 62.2343 19.3859
Sr 31.9287 66.9988 -0.32066
Sr 31.4291 66.648 3.83034
Sr 31.3077 66.4245 7.81709
Sr 31.2452 66.3126 11.7262
Sr 31.1986 66.2331 15.6143
Sr 31.144 66.151 19.5394
Sr 32.002 70.7381 -0.102778
Sr 31.5064 70.3883 4.04259
Sr 31.3233 70.2631 8.00073
Sr 31.2491 70.197 11.8809
Sr 31.1987 70.1489 15.7497
Sr 31.1426 70.0953 19.6635
Sr 31.8795 74.4402 0.212108
Sr 31.5134 74.1703 4.25628
Sr 31.3295 74.119 8.12422
Sr 31.2503 74.0992 11.9754
Sr 31.1973 74.0828 15.8306
Sr 31.1398 74.0622 19.7373
Sr 35.529 77.8311 0.500166
Sr 35.2749 77.9684 4.47792
Sr 35.1902 77.9955 8.30637
Sr 35.1509 78.0141 12.1163
Sr 35.1283 78.028 15.9461
Sr 35.1028 78.0413 19.8404
Sr 35.5826 3.59249 0.317792
Sr 35.2668 3.83938 4.34529
Sr 35.18 3.9641 8.20974
Sr 35.1455 4.02501 12.0414
Sr 35.1245 4.06857 15.884
Sr 35.0995 4.11496 19.7846
Sr 35.6357 7.31221 0.0754394
Sr 35.2439 7.63182 4.15505
Sr 35.1684 7.81371 8.03786
Sr 35.139 7.91558 11.8986
Sr 35.12 7.98864 15.7613
Sr 35.0957 8.06442 19.6733
Sr 35.6044 11.16 -0.0144261
Sr 35.2183 11.454 3.962
Sr 35.1566 11.6623 7.84375
Sr 35.1328 11.7893 11.7221
Sr 35.1157 11.8882 15.6028
Sr 35.0922 11.9868 19.5266
Sr 35.5112 15.1648 -0.0403247
Sr 35.1957 15.3467 3.82002
Sr 35.1448 15.5216 7.66272
Sr 35.1278 15.6585 11.5442
Sr 35.1121 15.7722 15.4337
Sr 35.0895 15.8836 19.3667
Sr 35.471 19.1565 -0.111707
Sr 35.1825 19.2756 3.70589
Sr 35.141 19.4092 7.51685