ITEM: TIMESTEP
7
ITEM: NUMBER OF ATOMS
22829
ITEM: BOX BOUNDS pp pp pp
4.9228806000000003e-01 7.8407712000000004e+01
5.0119663000000003e-01 7.8398803000000001e+01
-3.0163895000000000e+01 3.0163895000000000e+01
ITEM: ATOMS id type xs ys zs
13950 4 0.0485518 0.0731928 0.0704716
20568 3 0.0220451 0.0988714 0.070149
13836 4 0.101673 0.0732258 0.0711485
20454 3 0.0752076 0.0989052 0.0706221
13956 4 0.048611 0.125349 0.0686041
20574 3 0.0221049 0.151294 0.0680463
13842 4 0.101785 0.1254 0.0693077
20460 3 0.0753108 0.151351 0.068536
13728 4 0.154961 0.125458 0.0704495
20346 3 0.128553 0.151407 0.0694734
20232 3 0.181801 0.151486 0.070865
13962 4 0.0486851 0.177884 0.0664933
20580 3 0.0221813 0.204088 0.0659179
13848 4 0.101903 0.177941 0.0672267
20466 3 0.075422 0.204152 0.0664315
13734 4 0.155136 0.178016 0.0684247
20352 3 0.128717 0.204222 0.067408
13620 4 0.208308 0.178107 0.0700727
20238 3 0.182015 0.204317 0.068864
20124 3 0.235205 0.20443 0.0707649
13968 4 0.0487614 0.230701 0.0645011
20586 3 0.0222549 0.257102 0.0640654
13854 4 0.10202 0.230767 0.065267
20472 3 0.0755299 0.257163 0.0646056
13740 4 0.155295 0.230844 0.0665162
20358 3 0.128855 0.257237 0.0656239
13626 4 0.208498 0.230942 0.068242
20244 3 0.182188 0.257325 0.0671418
13512 4 0.261487 0.231048 0.0702894
20130 3 0.235405 0.257435 0.0691138
20016 3 0.288248 0.257544 0.0713083
13974 4 0.0488245 0.283667 0.0628496
20592 3 0.022308 0.31016 0.0626253
13860 4 0.102112 0.283727 0.0636476
20478 3 0.0756044 0.310215 0.0631884
13746 4 0.155415 0.283805 0.0649457
20364 3 0.128956 0.310282 0.064243
13632 4 0.208644 0.2839 0.0667317
20250 3 0.182309 0.310364 0.0658116
13518 4 0.261637 0.283987 0.0688371
20136 3 0.23553 0.310451 0.067838
13404 4 0.314226 0.284053 0.0709593
20022 3 0.288366 0.310526 0.0700777
13980 4 0.0488704 0.336696 0.0616279
20598 3 0.0223376 0.363252 0.0616043
13866 4 0.102177 0.336744 0.0624496
20484 3 0.0756446 0.363285 0.0621827
13752 4 0.155496 0.336811 0.063782
20370 3 0.129011 0.36333 0.0632617
13638 4 0.208734 0.336889 0.0656118
20256 3 0.182373 0.363388 0.0648697
13524 4 0.26173 0.336955 0.0677598
20142 3 0.235594 0.363448 0.0669359
13410 4 0.314307 0.336998 0.069907
20028 3 0.28842 0.36349 0.0692026
19914 3 0.340718 0.363507 0.071293
13986 4 0.0488878 0.389756 0.0608107
13992 4 0.0488859 0.442846 0.0603856
20604 3 0.0223469 0.416352 0.0609837
13872 4 0.102204 0.389789 0.0616483
13878 4 0.102197 0.442855 0.0612291
20490 3 0.075652 0.416368 0.0615703
13758 4 0.155532 0.389831 0.0630054
13764 4 0.155528 0.442868 0.0625986
20376 3 0.12902 0.416384 0.0626631
13644 4 0.208778 0.38988 0.0648668
13650 4 0.208779 0.44288 0.0644751
20262 3 0.182387 0.416408 0.0642915
13530 4 0.261772 0.389918 0.0670427
13536 4 0.261776 0.442889 0.0666662
20148 3 0.235608 0.416428 0.0663803
13416 4 0.314343 0.389941 0.0692068
13422 4 0.314347 0.442892 0.0688371
20034 3 0.288436 0.416441 0.0686654
13302 4 0.36644 0.389942 0.0709864
13308 4 0.366443 0.442887 0.0706211
19920 3 0.340725 0.416441 0.070761
13998 4 0.0488685 0.495972 0.0603536
20610 3 0.0223425 0.46948 0.0607543
13884 4 0.102168 0.495956 0.0611932
20496 3 0.0756345 0.469474 0.0613385
13770 4 0.155493 0.495932 0.0625587
20382 3 0.128997 0.469462 0.062433
13656 4 0.208742 0.495905 0.0644323
20268 3 0.182362 0.469444 0.0640675
13542 4 0.261745 0.49588 0.066623
20154 3 0.235583 0.469423 0.0661629
13428 4 0.314324 0.495861 0.0687932
20040 3 0.288418 0.469404 0.0684544
13314 4 0.366426 0.49585 0.0705798
19926 3 0.340714 0.46939 0.0705545
13943 4 0.0481995 0.0218426 0.140455
13944 4 0.0485033 0.0213816 0.0717862
16230 5 0.021911 0.0475585 0.105053
18390 3 0.0219215 0.0215715 0.106075
20561 3 0.0218161 0.0478266 0.139876
20562 3 0.0220101 0.0469241 0.0718521
22613 3 0.0483984 0.0476749 0.105289
13829 4 0.101005 0.0218524 0.141081
13830 4 0.101576 0.021392 0.0724354
16116 5 0.0748687 0.0475793 0.1055
18276 3 0.074853 0.021581 0.106512
20447 3 0.074633 0.0478421 0.140309
20448 3 0.0751247 0.0469468 0.0723101
22499 3 0.101362 0.0476975 0.105941
13715 4 0.153814 0.0218599 0.1421
13716 4 0.154632 0.0214166 0.073458
16002 5 0.127828 0.0476031 0.106355
18162 3 0.127788 0.0215958 0.107335
20333 3 0.127462 0.0478538 0.141155
20334 3 0.128244 0.0469849 0.0731688
22385 3 0.154315 0.0477243 0.107013
13602 4 0.207613 0.0214388 0.0748318
15888 5 0.180766 0.0476314 0.1076
18048 3 0.180688 0.0216106 0.108537
20219 3 0.180292 0.0478687 0.142411
20220 3 0.181316 0.0470393 0.0744098
22271 3 0.207218 0.0477437 0.108465
13488 4 0.26045 0.0214437 0.0764748
15774 5 0.233627 0.0476592 0.109205
17934 3 0.233507 0.0216148 0.110066
20106 3 0.234288 0.0471188 0.0759789
22157 3 0.260005 0.0477458 0.11024
13374 4 0.313052 0.0214261 0.0782241
15660 5 0.286336 0.0476769 0.111041
17820 3 0.286187 0.0216019 0.11181
19992 3 0.287039 0.0472038 0.0777488
22043 3 0.312604 0.047731 0.112151
13260 4 0.365354 0.0213785 0.079838
15546 5 0.338826 0.0476734 0.11289
17706 3 0.338666 0.0215686 0.113589
19878 3 0.339476 0.0472505 0.0795091
21929 3 0.364968 0.0476868 0.113945
13146 4 0.417375 0.0213142 0.0810421
15318 5 0.443149 0.0475722 0.115462
15432 5 0.391079 0.0476388 0.114467
17478 3 0.443055 0.0214485 0.116154
17592 3 0.390935 0.0215101 0.115155
19650 3 0.443377 0.0471771 0.0819132
19764 3 0.39156 0.0472366 0.0809888
21815 3 0.417117 0.0476176 0.115282
13032 4 0.469224 0.0212503 0.0816102
15204 5 0.495158 0.0474861 0.115676
17364 3 0.495126 0.0213931 0.116367
19536 3 0.495076 0.0470796 0.0821019
21701 3 0.469141 0.047542 0.11593
13949 4 0.0482258 0.0740475 0.138848
16236 5 0.0219424 0.0997193 0.103204
18396 3 0.0219436 0.0735992 0.104555
20567 3 0.021842 0.10022 0.137831
22619 3 0.0484478 0.0998758 0.10342
13835 4 0.101061 0.0740731 0.139493
16122 5 0.0749339 0.0997573 0.103663
18282 3 0.074912 0.07363 0.105006
20453 3 0.0746874 0.100253 0.138276
22505 3 0.101454 0.0999183 0.104095
13721 4 0.153912 0.0740988 0.140563
13722 4 0.154784 0.0732694 0.072227
16008 5 0.127945 0.0997969 0.104552
18168 3 0.127883 0.0736621 0.105873
20339 3 0.127559 0.100284 0.139154
20340 3 0.128393 0.0989528 0.0715206
22391 3 0.154463 0.0999607 0.105218
13607 4 0.206752 0.0741279 0.142051
13608 4 0.207828 0.0733322 0.0736837
15894 5 0.180943 0.0998443 0.105882
18054 3 0.180834 0.0737001 0.107144
20225 3 0.180438 0.100309 0.140484
20226 3 0.181554 0.0990349 0.0728375
22277 3 0.207427 0.100008 0.106779
13494 4 0.260705 0.0733961 0.0754123
15780 5 0.233862 0.0999043 0.107602
17940 3 0.2337 0.0737458 0.108778
20111 3 0.233283 0.100345 0.142235
20112 3 0.2346 0.0991449 0.0745183
22163 3 0.260264 0.100052 0.108695
13380 4 0.313299 0.0734437 0.0772306
15666 5 0.286609 0.099969 0.109579
17826 3 0.286402 0.0737893 0.110649
19998 3 0.287394 0.0992835 0.0764046
22049 3 0.312884 0.100072 0.110759
13266 4 0.36557 0.0734519 0.0788815
15552 5 0.3391 0.100014 0.111535
17712 3 0.338884 0.0738114 0.112519
19884 3 0.3398 0.0994094 0.07825
21935 3 0.365225 0.100061 0.112626
13152 4 0.417531 0.0733996 0.0800837
15324 5 0.443298 0.0999454 0.114136
15438 5 0.391306 0.100015 0.113151
17484 3 0.443176 0.0737294 0.115077
17598 3 0.391122 0.0737981 0.114087
19656 3 0.443505 0.0993758 0.0806525
19770 3 0.391809 0.0994467 0.0797476
21821 3 0.417308 0.100007 0.113992
13038 4 0.469297 0.0733001 0.0806289
15210 5 0.495208 0.0998142 0.114305
17370 3 0.495168 0.0736192 0.11527
19542 3 0.495107 0.0992226 0.08081
21707 3 0.469241 0.0999027 0.114577
13955 4 0.0482701 0.126534 0.136604
16242 5 0.0219875 0.152194 0.100957
18402 3 0.0219823 0.125932 0.102406
20573 3 0.0218845 0.152846 0.135438
22625 3 0.0485146 0.152336 0.101201
13841 4 0.101139 0.12657 0.13727
16128 5 0.0750186 0.152242 0.101434
18288 3 0.0749897 0.125976 0.102864
20459 3 0.0747606 0.152886 0.135896
22511 3 0.101564 0.152389 0.101898
13727 4 0.154034 0.126608 0.138394
16014 5 0.128076 0.152292 0.102354
18174 3 0.128012 0.126023 0.103765
20345 3 0.127669 0.152926 0.136803
22397 3 0.154623 0.152445 0.103065
13613 4 0.206927 0.126655 0.139982
13614 4 0.208068 0.125542 0.0720019
15900 5 0.181131 0.152351 0.10376
18060 3 0.18101 0.126075 0.10512
20231 3 0.180587 0.152967 0.138205
22283 3 0.207645 0.152505 0.10473
13499 4 0.259775 0.126718 0.141972
13500 4 0.260994 0.125641 0.0738511
15786 5 0.234107 0.152431 0.10561
17946 3 0.233923 0.126144 0.106872
20117 3 0.233496 0.153022 0.140083
20118 3 0.23493 0.151619 0.0726617
22169 3 0.260532 0.152566 0.106807
13386 4 0.313608 0.12573 0.0757639
15672 5 0.286892 0.152515 0.107729
17832 3 0.286658 0.12622 0.108885
20003 3 0.286318 0.15309 0.142305
20004 3 0.287758 0.15178 0.0746806
22055 3 0.313169 0.152616 0.109015
13272 4 0.365829 0.125768 0.0774481
15558 5 0.339379 0.152581 0.109808
17718 3 0.339134 0.126279 0.110896
19890 3 0.340135 0.1519 0.0766157
21941 3 0.365487 0.152628 0.110978
13158 4 0.417711 0.125733 0.0786434
15330 5 0.443456 0.152523 0.11244
15444 5 0.391542 0.152593 0.111472
17490 3 0.443329 0.126215 0.113498
17604 3 0.391335 0.126284 0.112527
19662 3 0.443652 0.151881 0.0790331
19776 3 0.392059 0.151951 0.078146
21827 3 0.417508 0.152579 0.112342
13044 4 0.469392 0.125618 0.0791571
15216 5 0.495279 0.152367 0.112569
17376 3 0.495236 0.126065 0.113646
19548 3 0.495132 0.151695 0.079146
21713 3 0.469354 0.152463 0.112911
13961 4 0.0483261 0.179229 0.134201
16248 5 0.0220435 0.204905 0.0987334
18408 3 0.0220333 0.178541 0.100087
20579 3 0.0219359 0.205608 0.133148
22631 3 0.0485887 0.205006 0.0990358
13847 4 0.101228 0.179272 0.134894
16134 5 0.0751088 0.204959 0.0992319
18294 3 0.0750796 0.178595 0.100568
20465 3 0.0748392 0.205653 0.133632
22517 3 0.101675 0.205062 0.0997577
13733 4 0.154161 0.179317 0.136068
16020 5 0.128207 0.205016 0.100195
18180 3 0.128146 0.178647 0.101503
20351 3 0.127777 0.205693 0.134579
22403 3 0.154776 0.20512 0.10098
13619 4 0.207103 0.179375 0.13775
15906 5 0.181304 0.205085 0.101664
18066 3 0.181192 0.17871 0.102913
20237 3 0.180734 0.20574 0.136047
22289 3 0.207839 0.205188 0.102726
13505 4 0.260002 0.179452 0.139884
13506 4 0.261271 0.178221 0.0720326
15792 5 0.234322 0.205166 0.103618
17952 3 0.234142 0.17879 0.104788
20123 3 0.233675 0.205806 0.138027
22175 3 0.26076 0.205262 0.104938
13391 4 0.31275 0.179527 0.142209
13392 4 0.313871 0.17831 0.0740377
15678 5 0.287133 0.205255 0.105864
17838 3 0.286895 0.178876 0.106952
20009 3 0.286555 0.205886 0.140385
20010 3 0.288044 0.204567 0.0728881
22061 3 0.313407 0.205316 0.107246
13278 4 0.366064 0.178365 0.0757675
15564 5 0.339612 0.205318 0.108031
17724 3 0.339369 0.178942 0.10905
19895 3 0.339168 0.205954 0.142736
19896 3 0.340411 0.204689 0.0749013
21947 3 0.365702 0.205335 0.109293
13164 4 0.417884 0.178322 0.0769634
15336 5 0.443594 0.205254 0.110684
15450 5 0.391736 0.205328 0.109729
17496 3 0.443473 0.17888 0.111702
17610 3 0.391539 0.178954 0.110742
19668 3 0.443784 0.204642 0.0773219
19782 3 0.392248 0.204719 0.0764513
21833 3 0.417674 0.205295 0.110633
13050 4 0.469486 0.178214 0.0774364
15222 5 0.495344 0.205098 0.110755
17382 3 0.495316 0.178719 0.111798
19554 3 0.49513 0.204447 0.0773884
21719 3 0.469453 0.205182 0.111201
13967 4 0.0483842 0.231982 0.132077
16254 5 0.0220966 0.257738 0.0968339
18414 3 0.0220863 0.231324 0.0979489
20585 3 0.0219842 0.258348 0.131246
22637 3 0.0486574 0.257802 0.0971913
13853 4 0.101314 0.232027 0.132804
16140 5 0.0751908 0.257793 0.0973601
18300 3 0.0751665 0.23138 0.0984609
20471 3 0.0749098 0.258393 0.131756
22523 3 0.101772 0.257856 0.0979504
13739 4 0.154277 0.232076 0.13403
16026 5 0.128317 0.257851 0.0983676
18186 3 0.128267 0.231436 0.0994413
20357 3 0.12787 0.258436 0.132749
22409 3 0.154901 0.257916 0.0992204
13625 4 0.207251 0.232137 0.135792
15912 5 0.181442 0.257919 0.0998976
18072 3 0.181345 0.231505 0.100919
20243 3 0.180849 0.258489 0.134273
22295 3 0.207987 0.257984 0.101039
13511 4 0.260187 0.232213 0.138036
15798 5 0.234485 0.257998 0.101932
17958 3 0.234319 0.231581 0.10287
20129 3 0.233813 0.258551 0.136338
22181 3 0.260925 0.258053 0.103337
13397 4 0.312962 0.232283 0.140476
13398 4 0.314091 0.231131 0.0723664
15684 5 0.287305 0.258076 0.10426
17844 3 0.287089 0.231662 0.105122
20015 3 0.286717 0.258622 0.138789
22067 3 0.313576 0.258105 0.105719
13283 4 0.365424 0.23232 0.142614
13284 4 0.366239 0.231163 0.0741211
15570 5 0.339777 0.258125 0.106484
17730 3 0.339553 0.231719 0.107334
19901 3 0.33934 0.258688 0.141212
19902 3 0.340584 0.25761 0.0733689
21953 3 0.365852 0.258121 0.10779
13170 4 0.418012 0.231135 0.0753099
15342 5 0.443685 0.25806 0.109119
15456 5 0.391869 0.258128 0.108192
17502 3 0.443589 0.231656 0.109995
17616 3 0.391695 0.231728 0.109039
19674 3 0.443839 0.257542 0.0757699
19788 3 0.392382 0.257628 0.074927
21839 3 0.417786 0.258084 0.109135
13056 4 0.469563 0.231005 0.0757438
15228 5 0.495395 0.257921 0.109128
17388 3 0.495388 0.231503 0.110025
19560 3 0.495155 0.257359 0.0757824
21725 3 0.469525 0.257986 0.109633
13973 4 0.0484329 0.284733 0.130395
16260 5 0.0221357 0.310624 0.0953735
18420 3 0.0221303 0.284186 0.0962713
20591 3 0.0220204 0.311107 0.129787
22643 3 0.048706 0.310664 0.0957619
13859 4 0.101381 0.284775 0.131154
16146 5 0.075249 0.310671 0.0959236
18306 3 0.0752337 0.284236 0.0968087
20477 3 0.07496 0.311144 0.130326
22529 3 0.10184 0.310712 0.0965476
13745 4 0.154363 0.284824 0.13243
16032 5 0.128395 0.310724 0.0969694
18192 3 0.128357 0.284293 0.0978281
20363 3 0.127933 0.311184 0.131354
22415 3 0.154985 0.310768 0.0978681
13631 4 0.207359 0.284883 0.134261
15918 5 0.181534 0.310786 0.0985519
18078 3 0.181455 0.284358 0.0993625
20249 3 0.180925 0.311232 0.132934
22301 3 0.208084 0.310829 0.0997473
13517 4 0.260317 0.284946 0.136585
15804 5 0.234591 0.310855 0.100652
17964 3 0.234444 0.28443 0.101386
20135 3 0.233902 0.311286 0.135066
22187 3 0.26103 0.310885 0.102106
13403 4 0.313102 0.285001 0.139095
15690 5 0.287414 0.310911 0.103028
17850 3 0.287218 0.284495 0.1037
20021 3 0.286817 0.311339 0.137575
22073 3 0.313679 0.310923 0.104526
13289 4 0.365552 0.285024 0.141266
13290 4 0.366353 0.284073 0.0727297
15576 5 0.339876 0.310943 0.105279
17736 3 0.339678 0.284535 0.105932
19907 3 0.339436 0.311375 0.140033
19908 3 0.340678 0.310569 0.0721579
21959 3 0.365938 0.310932 0.106608
13175 4 0.417677 0.285 0.142696
13176 4 0.418091 0.284035 0.0738984
15348 5 0.44374 0.310881 0.107876
15462 5 0.391947 0.310937 0.106988
17508 3 0.443671 0.284469 0.108567
17622 3 0.391799 0.284532 0.107659
19680 3 0.443873 0.310489 0.0745242
19793 3 0.391715 0.311379 0.141942
19794 3 0.392443 0.310559 0.0737126
21845 3 0.417852 0.310899 0.107931
13062 4 0.469607 0.283931 0.0742999
15234 5 0.495434 0.310773 0.107824
17394 3 0.495441 0.284344 0.108531
19565 3 0.495521 0.311225 0.142834
19566 3 0.495154 0.310347 0.0744823
21731 3 0.469571 0.310824 0.108387
13979 4 0.0484635 0.337488 0.129154
16266 5 0.0221586 0.363541 0.0943432
18426 3 0.0221612 0.337088 0.0950214
20597 3 0.0220401 0.363874 0.12876
22649 3 0.0487334 0.363565 0.0947473
13865 4 0.101422 0.337522 0.129941
16152 5 0.0752782 0.363575 0.0949099
18312 3 0.0752766 0.337129 0.0955843
20483 3 0.0749867 0.363903 0.129314
22535 3 0.101873 0.363603 0.0955521
13751 4 0.154413 0.337564 0.13126
16038 5 0.128433 0.363614 0.0959834
18198 3 0.128409 0.337175 0.0966411
20369 3 0.127962 0.363933 0.130374
22421 3 0.155026 0.363645 0.0969088
13637 4 0.20742 0.337612 0.133145
15924 5 0.181582 0.363661 0.0976072
18084 3 0.181517 0.337229 0.0982265
20255 3 0.180957 0.363967 0.131996
22307 3 0.208133 0.363688 0.0988351
13523 4 0.260393 0.337657 0.135526
15810 5 0.234645 0.363707 0.0997522
17970 3 0.234515 0.337285 0.100296
20141 3 0.233943 0.364001 0.134172
22193 3 0.261082 0.363726 0.10123
13409 4 0.313181 0.337691 0.138077
15696 5 0.287469 0.36374 0.10216
17856 3 0.287293 0.337328 0.102652
20027 3 0.286864 0.364031 0.136716
22079 3 0.313728 0.363747 0.103672
13295 4 0.365624 0.3377 0.140258
13296 4 0.366413 0.337005 0.071683
15582 5 0.339922 0.363755 0.104424
17742 3 0.339748 0.33735 0.104905
19913 3 0.339483 0.36405 0.139191
21965 3 0.365982 0.363748 0.105754
13181 4 0.417735 0.337679 0.141671
13182 4 0.418133 0.336975 0.0728377
15354 5 0.44377 0.363705 0.106988
15468 5 0.391986 0.363744 0.106124
17514 3 0.443718 0.337293 0.107504
17628 3 0.391861 0.337341 0.106624
19685 3 0.443674 0.364006 0.142051
19686 3 0.443882 0.363441 0.0736309
19799 3 0.391752 0.364042 0.141094
19800 3 0.39247 0.363491 0.0728428
21851 3 0.417886 0.363723 0.107064
13067 4 0.469661 0.337621 0.142108
13068 4 0.469635 0.336894 0.073199
15240 5 0.495461 0.363635 0.106886
17400 3 0.49548 0.337202 0.107407
19571 3 0.495552 0.363941 0.141904
19572 3 0.495159 0.363342 0.0735413
21737 3 0.469596 0.363672 0.107478
13985 4 0.0484745 0.390257 0.12833
13991 4 0.0484699 0.443047 0.127899
16272 5 0.0221648 0.41648 0.0937176
18432 3 0.0221761 0.390019 0.0942
18438 3 0.0221764 0.442977 0.0937661
20603 3 0.022047 0.416667 0.128135
22655 3 0.0487384 0.416499 0.0941312
13871 4 0.101435 0.390281 0.129133
13877 4 0.101425 0.443054 0.128707
16158 5 0.0752829 0.416499 0.0942907
18318 3 0.0752915 0.390045 0.0947718
18324 3 0.0752839 0.442986 0.094343
20489 3 0.0749882 0.416682 0.128697
22541 3 0.101876 0.416518 0.0949447
13757 4 0.154429 0.390307 0.13048
13763 4 0.154416 0.44306 0.130063
16044 5 0.128437 0.416519 0.0953753
18204 3 0.128427 0.390075 0.0958508
18210 3 0.128414 0.442992 0.0954272
20375 3 0.127961 0.416695 0.12977
22427 3 0.15503 0.416539 0.096317
13643 4 0.207442 0.390334 0.1324
13649 4 0.207431 0.443065 0.131998
15930 5 0.181589 0.41654 0.0970265
18090 3 0.181538 0.390108 0.0974679
18096 3 0.181527 0.442997 0.0970595
20261 3 0.180957 0.416707 0.131413
22313 3 0.208139 0.416559 0.098271
13529 4 0.260423 0.390358 0.134815
13535 4 0.260418 0.443067 0.134428
15816 5 0.234656 0.416558 0.0991918
17976 3 0.234543 0.390138 0.0995747
17982 3 0.234537 0.442998 0.099181
20147 3 0.233947 0.416719 0.133615
22199 3 0.261095 0.416573 0.100686
13415 4 0.313214 0.390373 0.137388
13421 4 0.313215 0.443065 0.13701
15702 5 0.287483 0.416569 0.101624
17862 3 0.287326 0.39016 0.101953
17868 3 0.287323 0.442997 0.101574
20033 3 0.286871 0.416727 0.136179
22085 3 0.313742 0.416577 0.103141
13301 4 0.365654 0.390374 0.139573
13307 4 0.365657 0.443061 0.139197
15588 5 0.339936 0.416571 0.103894
17748 3 0.33978 0.390166 0.104214
17754 3 0.339781 0.442991 0.103841
19919 3 0.339494 0.416728 0.138661
21971 3 0.365994 0.416571 0.105222
13187 4 0.417761 0.390358 0.140971
13188 4 0.41815 0.389921 0.0721285
13193 4 0.417765 0.443053 0.140591
13194 4 0.418153 0.442877 0.071757
15360 5 0.443782 0.41654 0.106438
15474 5 0.391998 0.416563 0.105588
17520 3 0.44374 0.390124 0.106788
17526 3 0.443747 0.442966 0.106404
17634 3 0.391887 0.390154 0.105929
17640 3 0.39189 0.442981 0.105553
19691 3 0.443687 0.416701 0.141497
19692 3 0.443882 0.416398 0.0730825
19805 3 0.391761 0.416719 0.140555
19806 3 0.392476 0.416428 0.0723103
21857 3 0.417898 0.416555 0.106522
13073 4 0.469685 0.390324 0.141376
13074 4 0.469645 0.389871 0.0724657
13079 4 0.469695 0.443041 0.14098
13080 4 0.469651 0.442856 0.0720791
15246 5 0.495477 0.416506 0.106305
17406 3 0.495503 0.39007 0.106645
17412 3 0.495516 0.44295 0.106241
19577 3 0.495571 0.416668 0.141318
19578 3 0.495164 0.416352 0.0729636
21743 3 0.469609 0.416529 0.106911
13997 4 0.0484539 0.49586 0.127856
16278 5 0.0221615 0.469453 0.0934805
18444 3 0.0221681 0.495965 0.0937252
20609 3 0.0220422 0.469479 0.127901
22661 3 0.0487279 0.469459 0.0939012
13883 4 0.101395 0.495848 0.128658
16164 5 0.0752674 0.469451 0.0940531
18330 3 0.0752596 0.495953 0.0942964
20495 3 0.0749715 0.469478 0.128462
22547 3 0.101856 0.469458 0.0947124
13769 4 0.154379 0.495831 0.130008
16050 5 0.128414 0.469447 0.0951404
18216 3 0.128379 0.495933 0.095377
20381 3 0.127937 0.469471 0.129534
22433 3 0.155004 0.469453 0.0960864
13655 4 0.207394 0.49581 0.131936
15936 5 0.181564 0.469436 0.096797
18102 3 0.181487 0.495905 0.0970049
20267 3 0.180928 0.46946 0.131182
22319 3 0.208114 0.469444 0.0980452
13541 4 0.260383 0.49579 0.134363
15822 5 0.234634 0.469425 0.0989672
17988 3 0.234497 0.495878 0.0991215
20153 3 0.233923 0.469447 0.133385
22205 3 0.261073 0.469431 0.100464
13427 4 0.313187 0.495774 0.136946
15708 5 0.287467 0.469414 0.101401
17874 3 0.287288 0.49585 0.101516
20039 3 0.28685 0.469433 0.135953
22091 3 0.313726 0.46942 0.102927
13313 4 0.365638 0.495763 0.139135
15594 5 0.339924 0.469402 0.103678
17760 3 0.339755 0.495832 0.103786
19925 3 0.339479 0.46942 0.138439
21977 3 0.365984 0.469409 0.105007
13199 4 0.417755 0.495764 0.140532
13200 4 0.418144 0.495845 0.0717181
15366 5 0.443782 0.469389 0.106221
15480 5 0.391992 0.469392 0.105377
17532 3 0.44374 0.495824 0.106355
17646 3 0.391873 0.495822 0.1055
19697 3 0.443687 0.469411 0.141273
19698 3 0.443879 0.469373 0.0728706
19811 3 0.391754 0.469413 0.140333
19812 3 0.392469 0.46938 0.0721024
21863 3 0.417893 0.4694 0.106307
13085 4 0.469693 0.495774 0.140923
13086 4 0.469649 0.495854 0.0720405
15252 5 0.495483 0.469388 0.10608
17418 3 0.495519 0.495839 0.106191
19583 3 0.495579 0.469415 0.141086
19584 3 0.495168 0.469373 0.072741
21749 3 0.469613 0.469396 0.106687
13942 4 0.0478794 0.0222622 0.20978
16229 5 0.0217269 0.04822 0.174231
18389 3 0.0217425 0.0220119 0.17526
20560 3 0.0216339 0.0484822 0.208929
22612 3 0.048069 0.0482838 0.174474
13828 4 0.100413 0.0222753 0.210372
16115 5 0.0743971 0.0482384 0.174649
18275 3 0.0744037 0.0220244 0.175671
20446 3 0.0741715 0.0485008 0.209331
22498 3 0.100756 0.048305 0.175109
13714 4 0.152981 0.0222792 0.211369
16001 5 0.127093 0.0482529 0.175478
18161 3 0.127084 0.022035 0.176485
20332 3 0.126745 0.0485119 0.210148
22384 3 0.153462 0.0483231 0.17616
13600 4 0.205571 0.02227 0.212743
13601 4 0.206597 0.0218607 0.143495
15887 5 0.179805 0.0482627 0.176717
18047 3 0.179772 0.0220378 0.177685
20218 3 0.179344 0.0485079 0.211381
22270 3 0.206171 0.048336 0.177634
13487 4 0.259321 0.0218469 0.145197
15773 5 0.232511 0.04827 0.178328
17933 3 0.232451 0.0220265 0.179241
20104 3 0.231987 0.0484933 0.213007
20105 3 0.233063 0.047888 0.144031
22156 3 0.258859 0.0483383 0.179408
13373 4 0.311937 0.0218159 0.147069
15659 5 0.285182 0.0482724 0.180216
17819 3 0.285094 0.0220049 0.181051
19991 3 0.285751 0.0479076 0.145911
22042 3 0.311493 0.0483221 0.181376
13259 4 0.364418 0.021765 0.148855
15545 5 0.337792 0.0482709 0.182163
17705 3 0.337678 0.0219649 0.182958
19877 3 0.338285 0.0479227 0.147827
21928 3 0.364053 0.0482825 0.183218
13145 4 0.416763 0.0216996 0.15024
15317 5 0.442765 0.0481979 0.184973
15431 5 0.390312 0.0482556 0.18386
17477 3 0.442672 0.0218461 0.185727
17591 3 0.390198 0.0219161 0.184605
19649 3 0.442947 0.0478968 0.150552
19763 3 0.390685 0.0479396 0.149481
21814 3 0.416528 0.0482177 0.184664
13031 4 0.469041 0.0216327 0.150914
15203 5 0.495229 0.0480898 0.185202
17363 3 0.495185 0.0217671 0.18594
19535 3 0.495199 0.0477932 0.150777
21700 3 0.468977 0.0481199 0.185358
13948 4 0.0478858 0.0748949 0.207702
16235 5 0.0217432 0.100787 0.172014
18395 3 0.0217522 0.0744726 0.17344
20566 3 0.0216435 0.101337 0.206414
22618 3 0.0480972 0.100862 0.17218
13834 4 0.100438 0.0749153 0.208303
16121 5 0.0744371 0.100816 0.172442
18281 3 0.0744331 0.0744985 0.173851
20452 3 0.0741963 0.101363 0.206821
22504 3 0.100808 0.100892 0.17283
13720 4 0.153033 0.074928 0.209333
16007 5 0.127159 0.100842 0.173297
18167 3 0.127143 0.074518 0.174684
20338 3 0.126786 0.101376 0.207659
22390 3 0.153548 0.100919 0.173929
13606 4 0.205673 0.0749325 0.210787
15893 5 0.179912 0.100862 0.174602
18053 3 0.179872 0.0745329 0.175952
20224 3 0.179421 0.101377 0.208945
22276 3 0.206309 0.100951 0.175488
13492 4 0.25836 0.0749485 0.212611
13493 4 0.259536 0.074163 0.143881
15779 5 0.232679 0.100891 0.176341
17939 3 0.232603 0.0745502 0.177623
20110 3 0.232105 0.101379 0.210676
22162 3 0.259067 0.100985 0.177458
13379 4 0.312191 0.0741926 0.145877
15665 5 0.28543 0.100931 0.178405
17825 3 0.285304 0.074573 0.179586
19996 3 0.284861 0.101385 0.212775
19997 3 0.28603 0.100409 0.144278
22048 3 0.311772 0.101014 0.179617
13265 4 0.364669 0.0742027 0.147745
15551 5 0.338091 0.100977 0.180545
17711 3 0.33792 0.0746002 0.18163
19883 3 0.338617 0.100477 0.146345
21934 3 0.364362 0.101016 0.181679
13151 4 0.416961 0.0741724 0.149143
15323 5 0.442981 0.100963 0.183512
15437 5 0.390608 0.101008 0.182373
17483 3 0.442843 0.0745676 0.18459
17597 3 0.390424 0.0746127 0.183433
19655 3 0.443152 0.10048 0.149142
19769 3 0.39096 0.10052 0.14808
21820 3 0.416798 0.100963 0.183147
13037 4 0.469146 0.0740816 0.149801
15209 5 0.49532 0.100804 0.183701
17369 3 0.495253 0.0744273 0.184774
19541 3 0.495243 0.100329 0.149327
21706 3 0.46913 0.100848 0.183858
13954 4 0.0479087 0.127825 0.204984
16241 5 0.0217732 0.153547 0.169498
18401 3 0.0217725 0.12718 0.171048
20572 3 0.0216689 0.154343 0.203789
22624 3 0.0481384 0.153574 0.169696
13840 4 0.100476 0.127847 0.205602
16127 5 0.0744872 0.153583 0.169941
18287 3 0.0744785 0.127212 0.171475
20458 3 0.0742324 0.154372 0.204213
22510 3 0.100871 0.15361 0.170366
13726 4 0.153095 0.127863 0.206667
16013 5 0.12724 0.153613 0.170828
18173 3 0.127217 0.127239 0.172339
20344 3 0.126833 0.154393 0.205075
22396 3 0.153643 0.153641 0.171513
13612 4 0.205772 0.127882 0.208197
15899 5 0.180026 0.153645 0.172201
18059 3 0.179985 0.127265 0.173665
20230 3 0.179491 0.154407 0.206411
22282 3 0.206445 0.153683 0.173159
13498 4 0.258534 0.127921 0.21017
15785 5 0.232845 0.153687 0.174057
17945 3 0.232772 0.127299 0.175444
20116 3 0.232215 0.154414 0.208245
22168 3 0.259265 0.15374 0.175293
13384 4 0.311366 0.127987 0.212485
13385 4 0.31248 0.126784 0.144135
15671 5 0.285672 0.15375 0.176305
17831 3 0.285531 0.127345 0.177596
20002 3 0.285067 0.154461 0.210521
22054 3 0.312056 0.153784 0.177697
13271 4 0.364956 0.126825 0.146112
15557 5 0.338398 0.15381 0.178641
17717 3 0.338195 0.127401 0.179847
19888 3 0.337987 0.154509 0.213044
19889 3 0.338923 0.153187 0.144531
21940 3 0.36467 0.153801 0.179875
13157 4 0.417195 0.126809 0.147535
15329 5 0.443219 0.153786 0.181741
15443 5 0.390908 0.153847 0.180595
17489 3 0.443054 0.127387 0.182937
17603 3 0.390699 0.127437 0.181771
19661 3 0.443327 0.153197 0.147403
19775 3 0.39126 0.153235 0.146346
21826 3 0.417073 0.153759 0.181471
13043 4 0.469288 0.126699 0.148157
15215 5 0.495436 0.153613 0.181871
17375 3 0.495371 0.127213 0.183086
19547 3 0.495348 0.153013 0.147527
21712 3 0.469305 0.153632 0.18205
13960 4 0.0479402 0.18066 0.202494
16247 5 0.0218077 0.206283 0.167195
18407 3 0.0218053 0.179942 0.168514
20578 3 0.0216998 0.207032 0.201544
22630 3 0.048187 0.2063 0.167463
13846 4 0.100522 0.180682 0.203138
16133 5 0.0745456 0.20632 0.167664
18293 3 0.0745353 0.17998 0.16896
20464 3 0.0742764 0.207063 0.201989
22516 3 0.100942 0.206335 0.16816
13732 4 0.153157 0.180703 0.204243
16019 5 0.12732 0.206352 0.168587
18179 3 0.127302 0.180014 0.169855
20350 3 0.12689 0.207083 0.202883
22402 3 0.153738 0.206372 0.169353
13618 4 0.205862 0.180731 0.205842
15905 5 0.180136 0.20639 0.170021
18065 3 0.180102 0.180047 0.171242
20236 3 0.179558 0.207101 0.204277
22288 3 0.206566 0.206416 0.171091
13504 4 0.258684 0.180782 0.207943
15791 5 0.232993 0.206441 0.171975
17951 3 0.232931 0.180091 0.17313
20122 3 0.23232 0.207131 0.206194
22174 3 0.259435 0.206472 0.173347
13390 4 0.311625 0.180864 0.210475
15677 5 0.285875 0.206506 0.174371
17837 3 0.28575 0.180149 0.175422
20008 3 0.28523 0.207171 0.208617
22060 3 0.312278 0.206525 0.175934
13276 4 0.364498 0.180937 0.212979
13277 4 0.365224 0.179571 0.144283
15563 5 0.338653 0.206567 0.176859
17723 3 0.338452 0.180205 0.177882
19894 3 0.338276 0.207254 0.211321
21946 3 0.364928 0.206543 0.178201
13163 4 0.417413 0.179549 0.145731
15335 5 0.443408 0.206538 0.180033
15449 5 0.391156 0.206591 0.178887
17495 3 0.443262 0.180181 0.18115
17609 3 0.390958 0.180242 0.179911
19667 3 0.443479 0.205939 0.145658
19780 3 0.390969 0.207331 0.213648
19781 3 0.391489 0.206006 0.144604
21832 3 0.417289 0.206509 0.179821
13049 4 0.469429 0.179432 0.146314
15221 5 0.495552 0.206367 0.180084
17381 3 0.4955 0.18 0.18119
19553 3 0.495425 0.20577 0.145709
21718 3 0.469457 0.206392 0.18036
13966 4 0.0479751 0.233294 0.200454
16253 5 0.0218438 0.258946 0.165316
18413 3 0.0218407 0.232636 0.166396
20584 3 0.0217323 0.259587 0.19972
22636 3 0.0482298 0.258966 0.165627
13852 4 0.100571 0.233318 0.201127
16139 5 0.074599 0.258983 0.165808
18299 3 0.0745909 0.232672 0.166869
20470 3 0.0743205 0.259615 0.200197
22522 3 0.101005 0.259 0.166358
13738 4 0.153218 0.23334 0.202275
16025 5 0.127391 0.259014 0.16677
18185 3 0.127377 0.232706 0.167804
20356 3 0.126943 0.259636 0.201127
22408 3 0.153814 0.259036 0.167601
13624 4 0.205946 0.233371 0.203943
15911 5 0.180224 0.259053 0.168261
18071 3 0.180201 0.23274 0.169249
20242 3 0.179623 0.259658 0.202571
22294 3 0.206664 0.259078 0.169409
13510 4 0.258807 0.233419 0.206147
15797 5 0.233107 0.259101 0.170301
17957 3 0.233062 0.232788 0.171215
20128 3 0.232399 0.259685 0.204567
22180 3 0.259558 0.259129 0.171757
13396 4 0.311825 0.233492 0.208838
15683 5 0.286023 0.259158 0.172799
17843 3 0.285917 0.232844 0.17363
20014 3 0.285345 0.259728 0.207088
22066 3 0.312437 0.259175 0.17445
13282 4 0.364749 0.233547 0.211497
15569 5 0.338828 0.259208 0.175383
17729 3 0.338649 0.232898 0.176181
19900 3 0.338451 0.25978 0.209914
21952 3 0.365099 0.25919 0.176783
13168 4 0.4173 0.233543 0.213303
13169 4 0.417575 0.232297 0.144061
15341 5 0.443535 0.259174 0.178572
15455 5 0.391317 0.259221 0.177454
17501 3 0.443423 0.23287 0.179516
17615 3 0.391154 0.232919 0.178333
19672 3 0.443527 0.259807 0.213648
19673 3 0.443585 0.25866 0.144131
19786 3 0.391146 0.259829 0.212326
19787 3 0.391631 0.258706 0.143114
21838 3 0.417435 0.259162 0.178403
13054 4 0.469615 0.23344 0.21396
13055 4 0.469541 0.232189 0.144599
15227 5 0.495629 0.259042 0.178545
17387 3 0.495603 0.232713 0.179526
19558 3 0.49563 0.259641 0.213531
19559 3 0.495476 0.258503 0.144114
21724 3 0.469557 0.259073 0.178875
13972 4 0.0480045 0.285814 0.198845