LAMMPS data file. CGCMM style. atom_style charge
 22829 atoms
 0 bonds
 0 angles
 0 dihedrals
 0 impropers
 6 atom types
 0 bond types
 0 angle types
 0 dihedral types
 0 improper types

 0.49228806 78.407712  xlo xhi
 0.50119663 78.398803  ylo yhi
 -30.163895 30.163895  zlo zhi

 Masses

 1 87.620003 # Sr
 2 47.867001 # Ti
 3 15.999400 # O
 4 137.327 # Ba
 5 118.71 # Sn
 6 138.905 # La

 Atoms

1 1 2.0 78.0345 77.5319 -0.698247
2 1 2.0 78.0304 77.9565 3.34613
3 1 2.0 78.0257 77.9892 7.18477
4 1 2.0 78.0204 78.0004 11.0291
5 1 2.0 78.0148 78.0112 14.9022
6 1 2.0 78.0084 78.0264 18.839
7 1 2.0 78.0358 3.33505 -0.915015
8 1 2.0 78.0314 3.76663 3.08171
9 1 2.0 78.0268 3.93316 7.02822
10 1 2.0 78.0212 3.99799 10.9269
11 1 2.0 78.0147 4.04212 14.8243
12 1 2.0 78.0082 4.09174 18.7718
13 1 2.0 78.0349 7.26262 -1.04453
14 1 2.0 78.0309 7.55074 2.88971
15 1 2.0 78.0262 7.74929 6.84084
16 1 2.0 78.0211 7.86703 10.7735
17 1 2.0 78.0144 7.94948 14.6939
18 1 2.0 78.0075 8.03145 18.6546
19 1 2.0 78.0333 11.2042 -1.15869
20 1 2.0 78.0298 11.4168 2.74664
21 1 2.0 78.0252 11.5936 6.67282
22 1 2.0 78.0199 11.7308 10.6063
23 1 2.0 78.0132 11.8397 14.5383
24 1 2.0 78.006 11.9456 18.5098
25 1 2.0 78.0321 15.1656 -1.25749
26 1 2.0 78.0289 15.326 2.62843
27 1 2.0 78.0243 15.4741 6.53015
28 1 2.0 78.0182 15.6057 10.4503
29 1 2.0 78.0113 15.7233 14.3815
30 1 2.0 78.0037 15.8383 18.3594
31 1 2.0 78.0319 19.1384 -1.3482
32 1 2.0 78.028 19.2615 2.52542
33 1 2.0 78.023 19.3809 6.40981
34 1 2.0 78.0168 19.496 10.3156
35 1 2.0 78.0092 19.6059 14.2411
36 1 2.0 78.0011 19.7161 18.2203
37 1 2.0 78.031 23.1207 -1.42776
38 1 2.0 78.0268 23.213 2.438
39 1 2.0 78.0215 23.305 6.31132
40 1 2.0 78.015 23.398 10.2065
41 1 2.0 78.0072 23.4906 14.1255
42 1 2.0 77.9984 23.5857 18.1042
43 1 2.0 78.0296 27.108 -1.49198
44 1 2.0 78.0257 27.1734 2.36983
45 1 2.0 78.0201 27.2393 6.23592
46 1 2.0 78.0133 27.3076 10.124
47 1 2.0 78.0053 27.3782 14.0373
48 1 2.0 77.996 27.4506 18.0149
49 1 2.0 78.0288 31.0974 -1.53705
50 1 2.0 78.0247 31.1379 2.32222
51 1 2.0 78.0191 31.1793 6.18474
52 1 2.0 78.0118 31.2223 10.0681
53 1 2.0 78.0035 31.2669 13.9781
54 1 2.0 77.9942 31.3126 17.9547
55 1 2.0 78.0281 35.0892 -1.56156
56 1 2.0 78.0238 35.1059 2.29681
57 1 2.0 78.0178 35.1219 6.15769
58 1 2.0 78.011 35.1388 10.0393
59 1 2.0 78.0025 35.1564 13.9478
60 1 2.0 77.993 35.1743 17.9234
61 1 2.0 78.0276 39.0816 -1.56391
62 1 2.0 78.0233 39.0742 2.29454
63 1 2.0 78.0172 39.0651 6.15544
64 1 2.0 78.0104 39.0559 10.0368
65 1 2.0 78.0021 39.0453 13.9458
66 1 2.0 77.9929 39.0336 17.9214
67 1 2.0 78.0278 43.0741 -1.54439
68 1 2.0 78.0232 43.0418 2.31507
69 1 2.0 78.0175 43.0076 6.17785
70 1 2.0 78.0106 42.9709 10.0621
71 1 2.0 78.0024 42.9327 13.9725
72 1 2.0 77.9933 42.8919 17.9493
73 1 2.0 78.0283 47.0644 -1.50434
74 1 2.0 78.0239 47.0065 2.35838
75 1 2.0 78.0181 46.9453 6.22597
76 1 2.0 78.0115 46.8825 10.1154
77 1 2.0 78.0033 46.8171 14.03
78 1 2.0 77.9942 46.749 18.0082
79 1 2.0 78.0293 51.0506 -1.44457
80 1 2.0 78.0249 50.9644 2.42379
81 1 2.0 78.019 50.8756 6.30055
82 1 2.0 78.0124 50.7867 10.1985
83 1 2.0 78.0047 50.6985 14.1195
84 1 2.0 77.9961 50.6063 18.0996
85 1 2.0 78.0305 55.0302 -1.36666
86 1 2.0 78.0257 54.9098 2.51081
87 1 2.0 78.0199 54.7921 6.40184
88 1 2.0 78.0134 54.6806 10.3126
89 1 2.0 78.0063 54.5753 14.2402
90 1 2.0 77.9981 54.4681 18.2204
91 1 2.0 78.0317 58.9992 -1.27296
92 1 2.0 78.0271 58.8344 2.62062
93 1 2.0 78.021 58.6858 6.53208
94 1 2.0 78.0146 58.5601 10.4568
95 1 2.0 78.0078 58.4498 14.3879
96 1 2.0 77.9999 58.34 18.3642
97 1 2.0 78.0329 62.9502 -1.15921
98 1 2.0 78.0281 62.7242 2.75956
99 1 2.0 78.022 62.5495 6.69563
100 1 2.0 78.0158 62.4263 10.6258
101 1 2.0 78.0093 62.3289 14.5511
102 1 2.0 78.0021 62.2298 18.5178
103 1 2.0 78.0342 66.8659 -1.02048
104 1 2.0 78.0287 66.5556 2.95005
105 1 2.0 78.0229 66.3852 6.89068
106 1 2.0 78.0172 66.2908 10.803
107 1 2.0 78.0109 66.2214 14.7095
108 1 2.0 78.0042 66.1446 18.6634
109 1 2.0 78.0344 70.6357 -0.731622
110 1 2.0 78.0292 70.3358 3.20413
111 1 2.0 78.0241 70.2206 7.08875
112 1 2.0 78.0185 70.1731 10.9547
113 1 2.0 78.0123 70.1352 14.837
114 1 2.0 78.0064 70.0875 18.778
115 1 2.0 78.0333 74.3913 -0.335616
116 1 2.0 78.029 74.1239 3.44413
117 1 2.0 78.0249 74.0925 7.21314
118 1 2.0 78.0195 74.0815 11.0414
119 1 2.0 78.0137 74.0702 14.9071
120 1 2.0 78.0078 74.0535 18.8416
121 1 2.0 4.11837 77.5323 -0.689244
122 1 2.0 4.08996 77.9565 3.35805
123 1 2.0 4.0587 77.9894 7.19944
124 1 2.0 4.02535 78.0006 11.0462
125 1 2.0 3.98955 78.0109 14.9208
126 1 2.0 3.95268 78.026 18.8584
127 1 2.0 4.1202 3.33742 -0.902801
128 1 2.0 4.09216 3.76607 3.09403
129 1 2.0 4.06018 3.93255 7.04276
130 1 2.0 4.0256 3.99732 10.9442
131 1 2.0 3.98934 4.04054 14.8433
132 1 2.0 3.95218 4.09017 18.7916
133 1 2.0 4.11761 7.26491 -1.03244
134 1 2.0 4.09065 7.55049 2.90316
135 1 2.0 4.05944 7.74762 6.85641
136 1 2.0 4.025 7.86468 10.7915
137 1 2.0 3.98883 7.94686 14.7134
138 1 2.0 3.95093 8.02854 18.6751
139 1 2.0 4.11672 11.2045 -1.14617
140 1 2.0 4.08911 11.4156 2.7615
141 1 2.0 4.05804 11.5918 6.68958
142 1 2.0 4.02373 11.7281 10.6252
143 1 2.0 3.98735 11.8364 14.5588
144 1 2.0 3.94879 11.942 18.531
145 1 2.0 4.1156 15.1651 -1.24409
146 1 2.0 4.08736 15.3243 2.64356
147 1 2.0 4.05667 15.4713 6.54803
148 1 2.0 4.02219 15.6027 10.4707
149 1 2.0 3.98537 15.72 14.4034
150 1 2.0 3.9464 15.8345 18.3814
151 1 2.0 4.11467 19.1376 -1.3345
152 1 2.0 4.08621 19.2596 2.54155
153 1 2.0 4.05495 19.3782 6.42829
154 1 2.0 4.02094 19.4929 10.3366
155 1 2.0 3.98361 19.603 14.2637
156 1 2.0 3.94416 19.7132 18.2437
157 1 2.0 4.11335 23.1202 -1.41262
158 1 2.0 4.08472 23.2114 2.4547
159 1 2.0 4.05332 23.3032 6.33016
160 1 2.0 4.01924 23.3959 10.2278
161 1 2.0 3.98206 23.4885 14.1486
162 1 2.0 3.94227 23.5827 18.1284
163 1 2.0 4.11224 27.1075 -1.47622
164 1 2.0 4.08296 27.1721 2.38714
165 1 2.0 4.05157 27.2383 6.25528
166 1 2.0 4.0171 27.3065 10.1459
167 1 2.0 3.97997 27.3761 14.061
168 1 2.0 3.94035 27.4483 18.0397
169 1 2.0 4.11073 31.0975 -1.52115
170 1 2.0 4.08163 31.1377 2.33999
171 1 2.0 4.0501 31.1789 6.20426
172 1 2.0 4.01551 31.2215 10.0904
173 1 2.0 3.97858 31.266 14.0025
174 1 2.0 3.93913 31.3115 17.9798
175 1 2.0 4.10941 35.0888 -1.54492
176 1 2.0 4.08006 35.1054 2.31482
177 1 2.0 4.04873 35.1219 6.1776
178 1 2.0 4.01448 35.1388 10.0618
179 1 2.0 3.97808 35.156 13.9723
180 1 2.0 3.93914 35.1737 17.949
181 1 2.0 4.10895 39.0814 -1.54737
182 1 2.0 4.07929 39.0742 2.31242
183 1 2.0 4.04794 39.0657 6.17539
184 1 2.0 4.01453 39.0563 10.0593
185 1 2.0 3.97834 39.0455 13.9704
186 1 2.0 3.93946 39.034 17.9473
187 1 2.0 4.10871 43.0741 -1.52843
188 1 2.0 4.07956 43.042 2.33252
189 1 2.0 4.04829 43.0081 6.1976
190 1 2.0 4.01512 42.9719 10.0842
191 1 2.0 3.97919 42.9338 13.9971
192 1 2.0 3.94031 42.8929 17.975
193 1 2.0 4.1094 47.064 -1.48875
194 1 2.0 4.08055 47.0068 2.37502
195 1 2.0 4.04952 46.9465 6.24525
196 1 2.0 4.01628 46.8839 10.1374
197 1 2.0 3.98058 46.8187 14.0541
198 1 2.0 3.94153 46.7508 18.0337
199 1 2.0 4.11106 51.0508 -1.42923
200 1 2.0 4.08212 50.9646 2.44033
201 1 2.0 4.05066 50.8766 6.31933
202 1 2.0 4.01722 50.7886 10.2201
203 1 2.0 3.98167 50.7004 14.1432
204 1 2.0 3.9429 50.6088 18.124
205 1 2.0 4.11279 55.0299 -1.35264
206 1 2.0 4.08377 54.9098 2.52752
207 1 2.0 4.05207 54.7928 6.42049
208 1 2.0 4.01851 54.6822 10.3338
209 1 2.0 3.98263 54.5777 14.2636
210 1 2.0 3.94452 54.4711 18.2443
211 1 2.0 4.11445 58.9992 -1.25849
212 1 2.0 4.08535 58.8343 2.63722
213 1 2.0 4.05371 58.6865 6.55058
214 1 2.0 4.01996 58.5615 10.4777
215 1 2.0 3.98398 58.4522 14.4106
216 1 2.0 3.9462 58.343 18.3873
217 1 2.0 4.11595 62.9501 -1.14528
218 1 2.0 4.08669 62.7238 2.77571
219 1 2.0 4.05529 62.5502 6.71396
220 1 2.0 4.02123 62.4277 10.6465
221 1 2.0 3.98553 62.3312 14.5729
222 1 2.0 3.94793 62.2329 18.5403
223 1 2.0 4.11734 66.866 -1.0074
224 1 2.0 4.08741 66.5556 2.96592
225 1 2.0 4.05616 66.3861 6.90849
226 1 2.0 4.02259 66.2923 10.8232
227 1 2.0 3.98684 66.2237 14.7306
228 1 2.0 3.94988 66.1476 18.6849
229 1 2.0 4.11629 70.6337 -0.719354
230 1 2.0 4.08726 70.3356 3.2189
231 1 2.0 4.05671 70.2215 7.10599
232 1 2.0 4.02383 70.175 10.9736
233 1 2.0 3.98852 70.1373 14.857
234 1 2.0 3.95142 70.0897 18.7987
235 1 2.0 4.11117 74.3906 -0.322932
236 1 2.0 4.08706 74.1246 3.45718
237 1 2.0 4.05714 74.0933 7.22885
238 1 2.0 4.02452 74.0824 11.0591
239 1 2.0 3.98917 74.071 14.9259
240 1 2.0 3.95232 74.0543 18.8613
241 1 2.0 8.11884 77.5299 -0.665341
242 1 2.0 8.06045 77.958 3.39218
243 1 2.0 8.00324 77.9896 7.24102
244 1 2.0 7.94289 78.0012 11.0928
245 1 2.0 7.87942 78.0112 14.9712
246 1 2.0 7.81217 78.0256 18.91
247 1 2.0 8.12068 3.34311 -0.870329
248 1 2.0 8.06599 3.76746 3.12953
249 1 2.0 8.00548 3.93329 7.0852
250 1 2.0 7.94353 3.99689 10.9916
251 1 2.0 7.87878 4.03997 14.8946
252 1 2.0 7.81149 4.08861 18.8446
253 1 2.0 8.11729 7.26782 -0.999022
254 1 2.0 8.06477 7.55156 2.93985
255 1 2.0 8.00592 7.74797 6.89986
256 1 2.0 7.94328 7.8644 10.8407
257 1 2.0 7.87737 7.94544 14.7667
258 1 2.0 7.80864 8.02643 18.7297
259 1 2.0 8.11533 11.2054 -1.11205
260 1 2.0 8.06197 11.4158 2.8002
261 1 2.0 8.00421 11.5907 6.7347
262 1 2.0 7.94167 11.7264 10.6763
263 1 2.0 7.87522 11.8352 14.6138
264 1 2.0 7.80601 11.9401 18.5871
265 1 2.0 8.1127 15.1641 -1.20932
266 1 2.0 8.05945 15.3227 2.6835
267 1 2.0 8.00108 15.4694 6.59424
268 1 2.0 7.93852 15.6008 10.5224
269 1 2.0 7.87276 15.7181 14.4595
270 1 2.0 7.80368 15.8327 18.4387
271 1 2.0 8.11028 19.1356 -1.29774
272 1 2.0 8.05592 19.2576 2.58236
273 1 2.0 7.99797 19.376 6.47506
274 1 2.0 7.93599 19.4909 10.3894
275 1 2.0 7.87053 19.6013 14.3202
276 1 2.0 7.80118 19.7115 18.3021
277 1 2.0 8.10835 23.118 -1.37509
278 1 2.0 8.05379 23.2091 2.49633
279 1 2.0 7.99565 23.3014 6.37728
280 1 2.0 7.93391 23.3937 10.2807
281 1 2.0 7.86848 23.4873 14.2058
282 1 2.0 7.79898 23.5818 18.1872
283 1 2.0 8.10667 27.1062 -1.4382
284 1 2.0 8.05185 27.1706 2.42858
285 1 2.0 7.99315 27.2368 6.30243
286 1 2.0 7.93163 27.3053 10.1985
287 1 2.0 7.86657 27.3752 14.1181
288 1 2.0 7.79764 27.4479 18.0983
289 1 2.0 8.10471 31.0967 -1.48303
290 1 2.0 8.04942 31.137 2.38135
291 1 2.0 7.99089 31.1782 6.25124
292 1 2.0 7.92937 31.221 10.1428
293 1 2.0 7.86564 31.2657 14.0592
294 1 2.0 7.79733 31.312 18.0382
295 1 2.0 8.10286 35.0888 -1.50689
296 1 2.0 8.04768 35.1055 2.35624
297 1 2.0 7.98935 35.1222 6.2241
298 1 2.0 7.92863 35.139 10.1136
299 1 2.0 7.86529 35.1565 14.0282
300 1 2.0 7.79772 35.1742 18.0065
301 1 2.0 8.10218 39.0814 -1.50984
302 1 2.0 8.04699 39.0746 2.3535
303 1 2.0 7.98893 39.0662 6.22139
304 1 2.0 7.92867 39.0569 10.1108
305 1 2.0 7.86586 39.0463 14.0257
306 1 2.0 7.79863 39.0351 18.0042
307 1 2.0 8.10201 43.0747 -1.49143
308 1 2.0 8.0473 43.043 2.37281
309 1 2.0 7.99007 43.0093 6.2435
310 1 2.0 7.9299 42.9731 10.1355
311 1 2.0 7.86697 42.9351 14.0526
312 1 2.0 7.80014 42.8943 18.032
313 1 2.0 8.10335 47.0652 -1.45163
314 1 2.0 8.04875 47.0081 2.41534
315 1 2.0 7.99156 46.9479 6.29104
316 1 2.0 7.93191 46.8855 10.1885
317 1 2.0 7.86886 46.8209 14.1096
318 1 2.0 7.80203 46.7525 18.0907
319 1 2.0 8.10555 51.0516 -1.39229
320 1 2.0 8.05082 50.9657 2.48109
321 1 2.0 7.99354 50.8785 6.36498
322 1 2.0 7.93356 50.7907 10.2712
323 1 2.0 7.87078 50.7022 14.1985
324 1 2.0 7.80372 50.6111 18.1808
325 1 2.0 8.10803 55.0308 -1.31548
326 1 2.0 8.05333 54.9113 2.56778
327 1 2.0 7.99599 54.7944 6.46622
328 1 2.0 7.93552 54.6842 10.3849
329 1 2.0 7.8724 54.5798 14.3184
330 1 2.0 7.80549 54.4738 18.3007
331 1 2.0 8.10964 58.9988 -1.2207
332 1 2.0 8.0558 58.8359 2.67804
333 1 2.0 7.99853 58.6886 6.59644
334 1 2.0 7.93777 58.5635 10.5285
335 1 2.0 7.87371 58.4545 14.4652
336 1 2.0 7.80694 58.3459 18.4432
337 1 2.0 8.11125 62.9501 -1.10909
338 1 2.0 8.05798 62.7249 2.81674
339 1 2.0 8.0004 62.5523 6.75921
340 1 2.0 7.93966 62.4296 10.6965
341 1 2.0 7.87554 62.3334 14.6265
342 1 2.0 7.80883 62.2352 18.5954
343 1 2.0 8.11276 66.8637 -0.97266
344 1 2.0 8.05886 66.5557 3.00541
345 1 2.0 8.00148 66.3873 6.95296
346 1 2.0 7.94098 66.2945 10.8723
347 1 2.0 7.87726 66.2257 14.7831
348 1 2.0 7.81013 66.1499 18.7387
349 1 2.0 8.1103 70.631 -0.683601
350 1 2.0 8.05737 70.3355 3.25668
351 1 2.0 8.00154 70.2222 7.14875
352 1 2.0 7.94176 70.1763 11.0214
353 1 2.0 7.87834 70.1388 14.9084
354 1 2.0 7.81162 70.0912 18.851
355 1 2.0 8.103 74.3874 -0.290682
356 1 2.0 8.05591 74.1248 3.4928
357 1 2.0 8.00164 74.0946 7.26982
358 1 2.0 7.94243 74.0838 11.1055
359 1 2.0 7.87917 74.072 14.9764
360 1 2.0 7.81232 74.055 18.9125
361 1 2.0 12.106 77.5255 -0.621542
362 1 2.0 12.0237 77.9604 3.45202
363 1 2.0 11.9416 77.9912 7.30819
364 1 2.0 11.8553 78.0016 11.1691
365 1 2.0 11.7655 78.0114 15.055
366 1 2.0 11.6716 78.0253 18.9966
367 1 2.0 12.1188 3.3429 -0.818591
368 1 2.0 12.0319 3.77049 3.18996
369 1 2.0 11.945 3.93441 7.15431
370 1 2.0 11.8554 3.99749 11.0708
371 1 2.0 11.7642 4.03987 14.9808
372 1 2.0 11.6697 4.088 18.9333
373 1 2.0 12.1165 7.26967 -0.946524
374 1 2.0 12.0335 7.55253 2.99973
375 1 2.0 11.9453 7.74893 6.97024
376 1 2.0 11.854 7.86483 10.9228
377 1 2.0 11.7617 7.9453 14.8563
378 1 2.0 11.6668 8.02583 18.8214
379 1 2.0 12.1116 11.2055 -1.05841
380 1 2.0 12.0295 11.4156 2.86072
381 1 2.0 11.9427 11.5902 6.80686
382 1 2.0 11.8512 11.7264 10.7607
383 1 2.0 11.7586 11.8356 14.7056
384 1 2.0 11.6633 11.9399 18.6807
385 1 2.0 12.1065 15.1631 -1.1533
386 1 2.0 12.0242 15.3214 2.74645
387 1 2.0 11.9377 15.4685 6.66808
388 1 2.0 11.8477 15.6006 10.6076
389 1 2.0 11.7552 15.7183 14.5521
390 1 2.0 11.6596 15.8334 18.5333
391 1 2.0 12.1009 19.134 -1.24003
392 1 2.0 12.0185 19.2556 2.64709
393 1 2.0 11.9325 19.3744 6.55008
394 1 2.0 11.8434 19.49 10.4748
395 1 2.0 11.7525 19.6017 14.4129
396 1 2.0 11.6572 19.7123 18.3966
397 1 2.0 12.0988 23.1156 -1.31705
398 1 2.0 12.015 23.2072 2.56235
399 1 2.0 11.929 23.2997 6.45226
400 1 2.0 11.8403 23.3928 10.366
401 1 2.0 11.7502 23.4876 14.2977
402 1 2.0 11.6556 23.5832 18.2808
403 1 2.0 12.0964 27.104 -1.37873
404 1 2.0 12.0125 27.1692 2.49393
405 1 2.0 11.9258 27.2357 6.37709
406 1 2.0 11.8375 27.3049 10.2829
407 1 2.0 11.7482 27.376 14.2093
408 1 2.0 11.6546 27.4496 18.1912
409 1 2.0 12.0936 31.0962 -1.42362
410 1 2.0 12.0092 31.1365 2.44607
411 1 2.0 11.923 31.1779 6.32512
412 1 2.0 11.8358 31.2212 10.226
413 1 2.0 11.7473 31.2665 14.1492
414 1 2.0 11.6547 31.3136 18.13
415 1 2.0 12.0913 35.0888 -1.44908
416 1 2.0 12.0074 35.1057 2.42034
417 1 2.0 11.9215 35.1224 6.2973
418 1 2.0 11.8351 35.1394 10.196
419 1 2.0 11.7476 35.1576 14.1173
420 1 2.0 11.6557 35.1758 18.0975
421 1 2.0 12.0902 39.0823 -1.45271
422 1 2.0 12.0069 39.0757 2.41691
423 1 2.0 11.9214 39.067 6.29379
424 1 2.0 11.8356 39.0579 10.193
425 1 2.0 11.7488 39.0479 14.1138
426 1 2.0 11.6577 39.0369 18.0943
427 1 2.0 12.0909 43.0759 -1.43405
428 1 2.0 12.0076 43.0446 2.4363
429 1 2.0 11.9226 43.0106 6.31544
430 1 2.0 11.8375 42.9746 10.2171
431 1 2.0 11.7511 42.9364 14.1403
432 1 2.0 11.6603 42.8958 18.1216
433 1 2.0 12.0922 47.0669 -1.3943
434 1 2.0 12.0093 47.0098 2.47934
435 1 2.0 11.9252 46.9497 6.36319
436 1 2.0 11.8403 46.8869 10.27
437 1 2.0 11.7536 46.8226 14.1973
438 1 2.0 11.6626 46.7543 18.1802
439 1 2.0 12.0947 51.0532 -1.33575
440 1 2.0 12.0126 50.9679 2.54464
441 1 2.0 11.9286 50.8808 6.43739
442 1 2.0 11.8432 50.7924 10.3527
443 1 2.0 11.756 50.7042 14.2862
444 1 2.0 11.6649 50.613 18.2703
445 1 2.0 12.0985 55.033 -1.25778
446 1 2.0 12.0169 54.9142 2.6319
447 1 2.0 11.9326 54.7973 6.53866
448 1 2.0 11.8462 54.6866 10.4665
449 1 2.0 11.7583 54.5815 14.4064
450 1 2.0 11.6669 54.4755 18.3904
451 1 2.0 12.1021 59.0011 -1.1647
452 1 2.0 12.0209 58.839 2.74156
453 1 2.0 11.9374 58.692 6.66864
454 1 2.0 11.8496 58.5662 10.6102
455 1 2.0 11.7606 58.4566 14.5529
456 1 2.0 11.6686 58.3476 18.5326
457 1 2.0 12.1034 62.9507 -1.05354
458 1 2.0 12.0238 62.7285 2.87962
459 1 2.0 11.9404 62.5557 6.83048
460 1 2.0 11.8527 62.4323 10.7773
461 1 2.0 11.7628 62.3354 14.7138
462 1 2.0 11.6706 62.2376 18.6842
463 1 2.0 12.1055 66.8632 -0.917886
464 1 2.0 12.0259 66.5582 3.06592
465 1 2.0 11.9417 66.3903 7.02258
466 1 2.0 11.8544 66.2971 10.9512
467 1 2.0 11.7647 66.2277 14.8689
468 1 2.0 11.6719 66.1516 18.8264
469 1 2.0 12.1027 70.6298 -0.63152
470 1 2.0 12.0246 70.3362 3.31536
471 1 2.0 11.9412 70.2241 7.21655
472 1 2.0 11.8546 70.1779 11.0989
473 1 2.0 11.7651 70.1402 14.9928
474 1 2.0 11.6725 70.093 18.9374
475 1 2.0 12.0921 74.3871 -0.237772
476 1 2.0 12.0195 74.1249 3.55212
477 1 2.0 11.94 74.0951 7.33669
478 1 2.0 11.8546 74.0851 11.1815
479 1 2.0 11.7659 74.0729 15.0599
480 1 2.0 11.6726 74.0555 18.9985
481 1 2.0 16.0895 77.5466 -0.509988
482 1 2.0 15.9793 77.9627 3.53843
483 1 2.0 15.8687 77.9924 7.40237
484 1 2.0 15.7552 78.0023 11.2789
485 1 2.0 15.6452 78.012 15.175
486 1 2.0 15.5335 78.0254 19.1184
487 1 2.0 16.1128 3.33913 -0.749854
488 1 2.0 15.9903 3.77446 3.27157
489 1 2.0 15.8717 3.93717 7.25244
490 1 2.0 15.7542 3.99892 11.1846
491 1 2.0 15.6423 4.04058 15.1043
492 1 2.0 15.5305 4.08828 19.0578
493 1 2.0 16.1113 7.26631 -0.876827
494 1 2.0 15.9926 7.55445 3.08044
495 1 2.0 15.8715 7.7522 7.06993
496 1 2.0 15.7523 7.8667 11.0399
497 1 2.0 15.6396 7.94693 14.983
498 1 2.0 15.5269 8.0272 18.9487
499 1 2.0 16.104 11.2033 -0.986772
500 1 2.0 15.987 11.4153 2.94228
501 1 2.0 15.867 11.5915 6.90771
502 1 2.0 15.7481 11.7293 10.8796
503 1 2.0 15.6356 11.838 14.8341
504 1 2.0 15.5225 11.942 18.8097
505 1 2.0 16.0955 15.162 -1.07955
506 1 2.0 15.9778 15.32 2.8304
507 1 2.0 15.8596 15.4684 6.7707
508 1 2.0 15.7431 15.6018 10.7274
509 1 2.0 15.6319 15.7211 14.6807
510 1 2.0 15.5192 15.8365 18.6627
511 1 2.0 16.0862 19.1321 -1.1635
512 1 2.0 15.9692 19.2532 2.7341
513 1 2.0 15.8522 19.3738 6.65372
514 1 2.0 15.7385 19.4912 10.5938
515 1 2.0 15.6289 19.6044 14.5407
516 1 2.0 15.5167 19.7159 18.5251
517 1 2.0 16.0813 23.1131 -1.23814
518 1 2.0 15.9636 23.2051 2.65035
519 1 2.0 15.8465 23.2985 6.55602
520 1 2.0 15.7348 23.3946 10.4841
521 1 2.0 15.6262 23.4901 14.4238
522 1 2.0 15.5149 23.5869 18.4076
523 1 2.0 16.0781 27.1021 -1.30046
524 1 2.0 15.9593 27.1676 2.58224
525 1 2.0 15.8427 27.2356 6.47991
526 1 2.0 15.7315 27.3061 10.4
527 1 2.0 15.6243 27.3786 14.3333
528 1 2.0 15.5143 27.453 18.3163
529 1 2.0 16.0743 31.0953 -1.34656
530 1 2.0 15.9558 31.136 2.5336
531 1 2.0 15.8395 31.1783 6.42705
532 1 2.0 15.7293 31.2227 10.3415
533 1 2.0 15.6237 31.2691 14.2719
534 1 2.0 15.5148 31.3169 18.2532
535 1 2.0 16.0718 35.0885 -1.37197
536 1 2.0 15.9537 35.1061 2.50655
537 1 2.0 15.8384 35.1233 6.39816
538 1 2.0 15.7286 35.1408 10.3101
539 1 2.0 15.6245 35.1594 14.2389
540 1 2.0 15.5166 35.1786 18.2199
541 1 2.0 16.0708 39.0828 -1.37637
542 1 2.0 15.9534 39.0761 2.5023
543 1 2.0 15.839 39.0683 6.39363
544 1 2.0 15.7302 39.0593 10.3061
545 1 2.0 15.6266 39.0498 14.2347
546 1 2.0 15.5191 39.0388 18.2158
547 1 2.0 16.0715 43.0772 -1.35908
548 1 2.0 15.9545 43.046 2.52163
549 1 2.0 15.841 43.0121 6.41484
550 1 2.0 15.7331 42.9761 10.3294
551 1 2.0 15.6296 42.9376 14.2605
552 1 2.0 15.5226 42.8974 18.2426
553 1 2.0 16.0734 47.0697 -1.31948
554 1 2.0 15.9574 47.0127 2.5641
555 1 2.0 15.8442 46.9525 6.46216
556 1 2.0 15.7366 46.8893 10.3824
557 1 2.0 15.6329 46.824 14.317
558 1 2.0 15.526 46.7552 18.3009
559 1 2.0 16.0763 51.0572 -1.26004
560 1 2.0 15.9619 50.9723 2.62963
561 1 2.0 15.8493 50.8841 6.53606
562 1 2.0 15.7406 50.7948 10.4652
563 1 2.0 15.6361 50.7054 14.4061
564 1 2.0 15.5289 50.6137 18.391
565 1 2.0 16.0813 55.0376 -1.18404
566 1 2.0 15.9684 54.9199 2.71517
567 1 2.0 15.8554 54.802 6.63668
568 1 2.0 15.7453 54.6897 10.5788
569 1 2.0 15.6392 54.5831 14.5267
570 1 2.0 15.5315 54.4765 18.5112
571 1 2.0 16.087 59.0077 -1.09087
572 1 2.0 15.9755 58.8456 2.82365
573 1 2.0 15.8619 58.6971 6.76572
574 1 2.0 15.7501 58.569 10.7226
575 1 2.0 15.6425 58.4583 14.6736
576 1 2.0 15.5334 58.3488 18.6538
577 1 2.0 16.0914 62.9557 -0.981499
578 1 2.0 15.9821 62.7344 2.95953
579 1 2.0 15.8685 62.5618 6.92605
580 1 2.0 15.7542 62.436 10.8888
581 1 2.0 15.6448 62.3372 14.8344
582 1 2.0 15.5351 62.239 18.8056
583 1 2.0 16.095 66.8657 -0.848876
584 1 2.0 15.9861 66.5634 3.14419
585 1 2.0 15.8729 66.395 7.11508
586 1 2.0 15.7569 66.3003 11.0614
587 1 2.0 15.6462 66.2299 14.9887
588 1 2.0 15.5365 66.1533 18.9474
589 1 2.0 16.0899 70.6335 -0.564114
590 1 2.0 15.9836 70.3398 3.3927
591 1 2.0 15.8715 70.2266 7.30754
592 1 2.0 15.7571 70.1806 11.207
593 1 2.0 15.6469 70.1421 15.1114
594 1 2.0 15.5366 70.0943 19.0578
595 1 2.0 16.0729 74.3942 -0.169522
596 1 2.0 15.9742 74.1272 3.63129
597 1 2.0 15.8676 74.0959 7.42738
598 1 2.0 15.756 74.0862 11.2891
599 1 2.0 15.6463 74.0743 15.178
600 1 2.0 15.5355 74.0564 19.1186
601 1 2.0 20.0575 77.5356 -0.431608
602 1 2.0 19.9258 77.9614 3.64373
603 1 2.0 19.7725 77.9938 7.52929
604 1 2.0 19.6374 78.0036 11.4254
605 1 2.0 19.5198 78.0135 15.3287
606 1 2.0 19.4031 78.0267 19.2705
607 1 2.0 20.097 3.33747 -0.658852
608 1 2.0 19.9341 3.7851 3.38575
609 1 2.0 19.7732 3.94376 7.38799
610 1 2.0 19.6343 4.00201 11.3368
611 1 2.0 19.5164 4.04281 15.2615
612 1 2.0 19.3991 4.09027 19.2127
613 1 2.0 20.1042 7.26375 -0.789851
614 1 2.0 19.9375 7.5601 3.18815
615 1 2.0 19.773 7.75904 7.20582
616 1 2.0 19.6301 7.87206 11.1956
617 1 2.0 19.5117 7.9509 15.1432
618 1 2.0 19.3943 8.03086 19.1054
619 1 2.0 20.0933 11.2012 -0.894952
620 1 2.0 19.9304 11.4148 3.04867
621 1 2.0 19.7668 11.5956 7.04215
622 1 2.0 19.6255 11.7351 11.0356
623 1 2.0 19.5074 11.8434 14.9952
624 1 2.0 19.3902 11.9469 18.9675
625 1 2.0 20.0762 15.1578 -0.985565
626 1 2.0 19.9132 15.3181 2.94017
627 1 2.0 19.7576 15.4699 6.90509
628 1 2.0 19.6207 15.6078 10.8819
629 1 2.0 19.5038 15.727 14.8412
630 1 2.0 19.3868 15.8423 18.82
631 1 2.0 20.062 19.1287 -1.06836
632 1 2.0 19.8997 19.251 2.84538
633 1 2.0 19.7485 19.374 6.7885
634 1 2.0 19.617 19.4951 10.7464
635 1 2.0 19.5009 19.6099 14.6992
636 1 2.0 19.3841 19.7221 18.6806
637 1 2.0 20.0528 23.1106 -1.14163
638 1 2.0 19.8906 23.2032 2.76225
639 1 2.0 19.7412 23.2994 6.69105
640 1 2.0 19.6125 23.3973 10.6343
641 1 2.0 19.4984 23.495 14.58
642 1 2.0 19.383 23.5929 18.5609
643 1 2.0 20.0467 27.1013 -1.20408
644 1 2.0 19.8843 27.167 2.69433
645 1 2.0 19.7362 27.2359 6.61391
646 1 2.0 19.6093 27.3084 10.5483
647 1 2.0 19.4971 27.3827 14.4873
648 1 2.0 19.3829 27.4586 18.4669
649 1 2.0 20.044 31.0946 -1.2507
650 1 2.0 19.8806 31.136 2.64541
651 1 2.0 19.7332 31.1792 6.55974
652 1 2.0 19.608 31.2249 10.4885
653 1 2.0 19.497 31.2723 14.4234
654 1 2.0 19.3837 31.321 18.4019
655 1 2.0 20.0419 35.0886 -1.27776
656 1 2.0 19.8786 35.1062 2.61688
657 1 2.0 19.7323 35.1238 6.52913
658 1 2.0 19.6081 35.1426 10.4556
659 1 2.0 19.4982 35.1621 14.3886
660 1 2.0 19.386 35.1819 18.3668
661 1 2.0 20.0402 39.083 -1.28332
662 1 2.0 19.8786 39.0766 2.61144
663 1 2.0 19.7332 39.0697 6.52356
664 1 2.0 19.6096 39.061 10.45
665 1 2.0 19.5005 39.0514 14.3833
666 1 2.0 19.3894 39.0409 18.3616
667 1 2.0 20.0405 43.0785 -1.26597
668 1 2.0 19.88 43.0481 2.62963
669 1 2.0 19.7357 43.0145 6.54346
670 1 2.0 19.6128 42.9779 10.4723
671 1 2.0 19.5043 42.939 14.4081
672 1 2.0 19.3934 42.8987 18.3875
673 1 2.0 20.0428 47.0728 -1.227
674 1 2.0 19.8842 47.0162 2.67094
675 1 2.0 19.7405 46.956 6.58935
676 1 2.0 19.6172 46.8919 10.5243
677 1 2.0 19.5083 46.825 14.4644
678 1 2.0 19.3975 46.756 18.4457
679 1 2.0 20.0481 51.0628 -1.16923
680 1 2.0 19.8912 50.9788 2.73422
681 1 2.0 19.7477 50.8895 6.66163
682 1 2.0 19.6226 50.7976 10.6068
683 1 2.0 19.5121 50.706 14.5536
684 1 2.0 19.4011 50.6141 18.536
685 1 2.0 20.0569 55.0447 -1.09403
686 1 2.0 19.9016 54.9278 2.81798
687 1 2.0 19.7563 54.808 6.76082
688 1 2.0 19.6283 54.6925 10.7205
689 1 2.0 19.516 54.5842 14.6748
690 1 2.0 19.404 54.4765 18.6566
691 1 2.0 20.0665 59.0164 -1.00353
692 1 2.0 19.9128 58.8549 2.92305
693 1 2.0 19.7654 58.7035 6.88827
694 1 2.0 19.634 58.5718 10.864
695 1 2.0 19.5195 58.4594 14.8225
696 1 2.0 19.4066 58.3493 18.8001
697 1 2.0 20.076 62.9665 -0.896999
698 1 2.0 19.9261 62.747 3.05479
699 1 2.0 19.7739 62.5683 7.04801
700 1 2.0 19.6386 62.4386 11.0312
701 1 2.0 19.5225 62.3385 14.984
702 1 2.0 19.4086 62.2395 18.9527
703 1 2.0 20.0803 66.8786 -0.76499
704 1 2.0 19.9392 66.5817 3.2326
705 1 2.0 19.7803 66.4025 7.23514
706 1 2.0 19.6409 66.3035 11.2044
707 1 2.0 19.5233 66.2317 15.1387
708 1 2.0 19.4092 66.1543 19.0949
709 1 2.0 20.0734 70.6389 -0.484656
710 1 2.0 19.9437 70.3542 3.47297
711 1 2.0 19.7801 70.233 7.42434
712 1 2.0 19.6414 70.1844 11.3489
713 1 2.0 19.5237 70.1447 15.2613
714 1 2.0 19.4083 70.0955 19.206
715 1 2.0 20.0544 74.3995 -0.092248
716 1 2.0 19.9239 74.1257 3.71944
717 1 2.0 19.7744 74.0976 7.54564
718 1 2.0 19.6398 74.0886 11.4313
719 1 2.0 19.5225 74.0764 15.3292
720 1 2.0 19.4061 74.0578 19.2683
721 1 2.0 23.9718 77.6144 -0.188636
722 1 2.0 23.8362 77.9759 3.80151
723 1 2.0 23.6403 77.9947 7.70409
724 1 2.0 23.5029 78.0061 11.6054
725 1 2.0 23.3959 78.0162 15.5049
726 1 2.0 23.288 78.0295 19.4394
727 1 2.0 24.0661 3.44703 -0.476728
728 1 2.0 23.8521 3.80607 3.54504
729 1 2.0 23.6379 3.95064 7.57674
730 1 2.0 23.4984 4.00657 11.524
731 1 2.0 23.3911 4.04725 15.4406
732 1 2.0 23.2834 4.09469 19.3832
733 1 2.0 24.1127 7.27002 -0.683633
734 1 2.0 23.8614 7.5648 3.33077
735 1 2.0 23.6356 7.77138 7.39577
736 1 2.0 23.4928 7.88124 11.3866
737 1 2.0 23.3859 7.95808 15.3243
738 1 2.0 23.2785 8.03698 19.2772
739 1 2.0 24.0774 11.1931 -0.785981
740 1 2.0 23.8446 11.4098 3.18692
741 1 2.0 23.6294 11.6074 7.22526
742 1 2.0 23.4882 11.7457 11.225
743 1 2.0 23.3817 11.8525 15.1767
744 1 2.0 23.2745 11.9549 19.1393
745 1 2.0 24.0444 15.1513 -0.870863
746 1 2.0 23.8163 15.3132 3.08219
747 1 2.0 23.6226 15.4744 7.07899
748 1 2.0 23.4842 15.6169 11.0663
749 1 2.0 23.3782 15.7364 15.0213
750 1 2.0 23.2711 15.8511 18.9906
751 1 2.0 24.0212 19.1262 -0.951961
752 1 2.0 23.7953 19.2498 2.98884
753 1 2.0 23.6134 19.3763 6.95958
754 1 2.0 23.4802 19.5016 10.9271
755 1 2.0 23.3755 19.6181 14.8762
756 1 2.0 23.269 19.7308 18.8485
757 1 2.0 24.0061 23.1106 -1.02588
758 1 2.0 23.7824 23.204 2.90514
759 1 2.0 23.6048 23.3018 6.86031
760 1 2.0 23.4762 23.4023 10.8123
761 1 2.0 23.3736 23.5017 14.7534
762 1 2.0 23.2681 23.6009 18.7256
763 1 2.0 23.9981 27.1015 -1.08723
764 1 2.0 23.774 27.1672 2.83768
765 1 2.0 23.599 27.2382 6.78192
766 1 2.0 23.4734 27.3122 10.7237
767 1 2.0 23.3726 27.3882 14.6579
768 1 2.0 23.2682 27.4654 18.6291
769 1 2.0 23.9954 31.0949 -1.13424
770 1 2.0 23.7697 31.1365 2.78715
771 1 2.0 23.5965 31.1806 6.72623
772 1 2.0 23.4727 31.2273 10.6618
773 1 2.0 23.3732 31.276 14.5919
774 1 2.0 23.2701 31.3261 18.5618
775 1 2.0 23.9937 35.0892 -1.16293
776 1 2.0 23.7685 35.1068 2.75751
777 1 2.0 23.5958 35.1251 6.69416
778 1 2.0 23.4733 35.1446 10.6274
779 1 2.0 23.3751 35.1647 14.5555
780 1 2.0 23.2729 35.185 18.5254
781 1 2.0 23.9924 39.0837 -1.16912
782 1 2.0 23.7684 39.0776 2.75057
783 1 2.0 23.5968 39.0707 6.68704
784 1 2.0 23.4752 39.0623 10.62
785 1 2.0 23.3777 39.053 14.5488
786 1 2.0 23.2766 39.043 18.5191
787 1 2.0 23.9918 43.0794 -1.15289
788 1 2.0 23.7696 43.0492 2.76748
789 1 2.0 23.5997 43.0161 6.70511
790 1 2.0 23.4783 42.9794 10.641
791 1 2.0 23.3815 42.9403 14.5722
792 1 2.0 23.2809 42.8998 18.5439
793 1 2.0 23.9951 47.0741 -1.1152
794 1 2.0 23.7757 47.02 2.80667
795 1 2.0 23.6058 46.9592 6.74876
796 1 2.0 23.4828 46.8933 10.6911
797 1 2.0 23.3855 46.8257 14.6278
798 1 2.0 23.2852 46.7563 18.6012
799 1 2.0 24.005 51.0679 -1.05932
800 1 2.0 23.7884 50.985 2.86531
801 1 2.0 23.6146 50.8943 6.81852
802 1 2.0 23.4886 50.7995 10.7728
803 1 2.0 23.3898 50.7066 14.7169
804 1 2.0 23.2891 50.6137 18.6915
805 1 2.0 24.0204 55.0531 -0.989397
806 1 2.0 23.8033 54.9362 2.94423
807 1 2.0 23.6255 54.8132 6.91558
808 1 2.0 23.4951 54.6936 10.8868
809 1 2.0 23.3941 54.5838 14.8388
810 1 2.0 23.2925 54.4761 18.8129
811 1 2.0 24.0357 59.0244 -0.903135
812 1 2.0 23.8206 58.8658 3.04655
813 1 2.0 23.6347 58.7082 7.04335
814 1 2.0 23.5001 58.5729 11.032
815 1 2.0 23.3977 58.4589 14.9879
816 1 2.0 23.2954 58.3484 18.9577
817 1 2.0 24.0522 62.9858 -0.798079
818 1 2.0 23.8383 62.7641 3.17732
819 1 2.0 23.6425 62.5736 7.2059
820 1 2.0 23.5036 62.4401 11.2016
821 1 2.0 23.4002 62.339 15.1507
822 1 2.0 23.297 62.2392 19.112
823 1 2.0 24.0719 66.9213 -0.679204
824 1 2.0 23.8553 66.6035 3.3523
825 1 2.0 23.6479 66.4107 7.39712
826 1 2.0 23.5062 66.3072 11.3767
827 1 2.0 23.4015 66.2331 15.3073
828 1 2.0 23.2973 66.1543 19.2563
829 1 2.0 24.1232 70.7629 -0.460924
830 1 2.0 23.8634 70.3772 3.57954
831 1 2.0 23.6486 70.2432 7.58608
832 1 2.0 23.5071 70.1898 11.5232
833 1 2.0 23.4012 70.1471 15.4319
834 1 2.0 23.2959 70.0962 19.3698
835 1 2.0 24.1254 74.4742 -0.141452
836 1 2.0 23.8433 74.1368 3.82215
837 1 2.0 23.6443 74.1052 7.70708
838 1 2.0 23.5062 74.0931 11.6062
839 1 2.0 23.3992 74.0788 15.5021
840 1 2.0 23.2924 74.0596 19.4347
841 1 2.0 28.0926 77.7132 0.0535729
842 1 2.0 27.6975 77.9744 4.02068
843 1 2.0 27.4872 77.996 7.91768
844 1 2.0 27.3677 78.0093 11.8041
845 1 2.0 27.284 78.0204 15.6847
846 1 2.0 27.1979 78.0339 19.606
847 1 2.0 28.2605 3.47901 -0.331248
848 1 2.0 27.6705 3.79162 3.82396
849 1 2.0 27.4794 3.95468 7.80993
850 1 2.0 27.3627 4.01284 11.7274
851 1 2.0 27.2794 4.05429 15.6224
852 1 2.0 27.1929 4.10131 19.5509
853 1 2.0 28.1713 7.24025 -0.570614
854 1 2.0 27.6694 7.62481 3.59629
855 1 2.0 27.4713 7.78803 7.6352
856 1 2.0 27.3559 7.89231 11.5915
857 1 2.0 27.2745 7.96814 15.506
858 1 2.0 27.1886 8.04615 19.4446
859 1 2.0 28.0594 11.1675 -0.654716
860 1 2.0 27.6943 11.4089 3.38853
861 1 2.0 27.4653 11.6205 7.4489
862 1 2.0 27.3497 11.7592 11.427
863 1 2.0 27.2702 11.8641 15.357
864 1 2.0 27.1844 11.9653 19.3055
865 1 2.0 27.9744 15.1446 -0.727803
866 1 2.0 27.658 15.3041 3.27411
867 1 2.0 27.4563 15.4816 7.29029
868 1 2.0 27.3454 15.6285 11.263
869 1 2.0 27.2667 15.748 15.1981
870 1 2.0 27.1814 15.8621 19.154
871 1 2.0 27.9382 19.1249 -0.810462
872 1 2.0 27.6286 19.2502 3.18438
873 1 2.0 27.4461 19.3831 7.16555
874 1 2.0 27.3412 19.5114 11.1183
875 1 2.0 27.2638 19.6285 15.0492
876 1 2.0 27.1797 19.7417 19.0084