LAMMPS (12 Dec 2018)
  using 1 OpenMP thread(s) per MPI task
#SrTiO3BaSnO3 film
units		metal
atom_style	charge
boundary p p p

neighbor 0.35 bin
neigh_modify every 20 delay 0 check no

read_data Hetero-Bulk-La
  orthogonal box = (0.492288 0.501197 -30.1639) to (78.4077 78.3988 30.1639)
  2 by 2 by 1 MPI processor grid
  reading atoms ...
  22829 atoms

pair_style buck/coul/long 8.0
kspace_style ewald 1.0e-6

pair_coeff 1 1 0.00 0.01 0.00 #Sr Sr
pair_coeff 1 2 0.00 0.01 0.00 #Sr Ti
pair_coeff 1 3 682.172 0.3945 0.00 #Sr O
pair_coeff 1 4 0.00 0.01 0.00 #Sr Ba
pair_coeff 1 5 0.00 0.01 0.00 #Sr Sn
pair_coeff 1 6 0.00 0.01 0.00 #Sr La
pair_coeff 2 2 0.00 0.01 0.00 #Ti Ti
pair_coeff 2 3 2179.122 0.30384 8.986 #Ti O
pair_coeff 2 4 0.00 0.01 0.00 #Ti Ba
pair_coeff 2 5 0.00 0.01 0.00 #Ti Sn
pair_coeff 2 6 0.00 0.01 0.00 #Ti La
pair_coeff 3 3 9547.96 0.21916 32.00 #O O
pair_coeff 3 4 873.829 0.3863 0.00 #O Ba
pair_coeff 3 5 1056.8 0.3683 0.00 #O Sn
pair_coeff 3 6 1968.92 0.34600 23.25 #O La
pair_coeff 4 4 0.00 0.01 0.00 #Ba Ba
pair_coeff 4 5 0.00 0.01 0.00 #Ba Sn
pair_coeff 4 6 0.00 0.01 0.00 #Ba La
pair_coeff 5 5 0.00 0.01 0.00 #Sn Sn
pair_coeff 5 6 0.00 0.01 0.00 #Sn La
pair_coeff 6 6 0.00 0.01 0.00 #La La


timestep 0.001


min_style cg

minimize 1.0e-6 1.0e-6 20000 100000
WARNING: Using 'neigh_modify every 1 delay 0 check yes' setting during minimization (src/min.cpp:168)
Ewald initialization ...
  using 12-bit tables for long-range coulomb (src/kspace.cpp:321)
  G vector (1/distance) = 0.466664
  estimated absolute RMS force accuracy = 2.22498e-05
  estimated relative force accuracy = 1.54517e-06
  KSpace vectors: actual max1d max3d = 138168 44 352484
                  kxmax kymax kzmax  = 44 44 34
Neighbor list info ...
  update every 1 steps, delay 0 steps, check yes
  max neighbors/atom: 2000, page size: 100000
  master list distance cutoff = 8.35
  ghost atom cutoff = 8.35
  binsize = 4.175, bins = 19 19 15
  1 neighbor lists, perpetual/occasional/extra = 1 0 0
  (1) pair buck/coul/long, perpetual
      attributes: half, newton on
      pair build: half/bin/atomonly/newton
      stencil: half/bin/3d/newton
      bin: standard
Per MPI rank memory allocation (min/avg/max) = 115.2 | 115.2 | 115.2 Mbytes
Step Temp E_pair E_mol TotEng Press 
       0            0   -683769.87            0   -683769.87   -6963.9083 
       7            0   -683783.68            0   -683783.68   -7043.2619 
Loop time of 48.1828 on 4 procs for 7 steps with 22829 atoms

99.9% CPU use with 4 MPI tasks x 1 OpenMP threads

Minimization stats:
  Stopping criterion = energy tolerance
  Energy initial, next-to-last, final = 
        -683769.872405     -683783.089343     -683783.675539
  Force two-norm initial, final = 30.8563 6.35992
  Force max component initial, final = 10.6999 1.13924
  Final line search alpha, max atom move = 0.0396367 0.0451556
  Iterations, force evaluations = 7 11

MPI task timing breakdown:
Section |  min time  |  avg time  |  max time  |%varavg| %total
---------------------------------------------------------------
Pair    | 0.33822    | 0.33964    | 0.34178    |   0.3 |  0.70
Kspace  | 46.867     | 47.171     | 47.801     |   5.4 | 97.90
Neigh   | 0.031954   | 0.032407   | 0.032969   |   0.2 |  0.07
Comm    | 0.0053303  | 0.63397    | 0.9382     |  46.7 |  1.32
Output  | 0          | 0          | 0          |   0.0 |  0.00
Modify  | 0          | 0          | 0          |   0.0 |  0.00
Other   |            | 0.005624   |            |       |  0.01

Nlocal:    5707.25 ave 5714 max 5699 min
Histogram: 1 0 1 0 0 0 0 0 0 2
Nghost:    6983 ave 7005 max 6962 min
Histogram: 1 0 0 1 0 1 0 0 0 1
Neighs:    496784 ave 497690 max 495823 min
Histogram: 1 0 1 0 0 0 0 1 0 1

Total # of neighbors = 1987136
Ave neighs/atom = 87.0444
Neighbor list builds = 3
Dangerous builds not checked

thermo 20

dump d2 all atom 1 dump.SrTiO3-BaSnO3-at
dump d3 all xyz 1 dump.SrTiO3-BaSnO3-xyz
dump_modify d3 element Sr Ti O Ba Sn La

thermo_style custom step temp pe etotal press vol fnorm fmax xlo xhi ylo yhi zlo zhi

run 1
WARNING: No fixes defined, atoms won't move (src/verlet.cpp:55)
Ewald initialization ...
  using 12-bit tables for long-range coulomb (src/kspace.cpp:321)
  G vector (1/distance) = 0.466664
  estimated absolute RMS force accuracy = 2.22498e-05
  estimated relative force accuracy = 1.54517e-06
  KSpace vectors: actual max1d max3d = 138168 44 352484
                  kxmax kymax kzmax  = 44 44 34
Per MPI rank memory allocation (min/avg/max) = 116.4 | 116.4 | 116.4 Mbytes
Step Temp PotEng TotEng Press Volume Fnorm Fmax Xlo Xhi Ylo Yhi Zlo Zhi 
       7            0   -683783.68   -683783.68   -7043.2619       366155     6.359924    1.1392387   0.49228806    78.407712   0.50119663    78.398803   -30.163895    30.163895 
       8            0   -683783.68   -683783.68   -7043.2619       366155     6.359924    1.1392387   0.49228806    78.407712   0.50119663    78.398803   -30.163895    30.163895 
Loop time of 4.03594 on 4 procs for 1 steps with 22829 atoms

Performance: 0.021 ns/day, 1121.094 hours/ns, 0.248 timesteps/s
100.0% CPU use with 4 MPI tasks x 1 OpenMP threads

MPI task timing breakdown:
Section |  min time  |  avg time  |  max time  |%varavg| %total
---------------------------------------------------------------
Pair    | 0.027297   | 0.027567   | 0.0277     |   0.1 |  0.68
Kspace  | 3.9079     | 3.9391     | 3.9936     |   1.6 | 97.60
Neigh   | 0          | 0          | 0          |   0.0 |  0.00
Comm    | 0.00040075 | 0.054611   | 0.085665   |  13.9 |  1.35
Output  | 0.014571   | 0.014596   | 0.014626   |   0.0 |  0.36
Modify  | 1.538e-06  | 2.6507e-06 | 3.7631e-06 |   0.0 |  0.00
Other   |            | 4.384e-05  |            |       |  0.00

Nlocal:    5707.25 ave 5714 max 5699 min
Histogram: 1 0 1 0 0 0 0 0 0 2
Nghost:    6983 ave 7005 max 6962 min
Histogram: 1 0 0 1 0 1 0 0 0 1
Neighs:    496789 ave 497677 max 495813 min
Histogram: 1 0 1 0 0 0 0 0 1 1

Total # of neighbors = 1987155
Ave neighs/atom = 87.0452
Neighbor list builds = 0
Dangerous builds not checked
Total wall time: 0:01:00
